55
Lattice="26.016666666666666 0.0 0.0 0.0 26.016666666666666 0.0 0.0 0.0 26.016666666666666" Properties=species:S:1:pos:R:3:tags:I:1:initial_magmoms:R:1:forces:R:3 energy=nan pbc="F F F"
Ne      10.00000000      10.00000000      11.50416667        0       0.00000000              nan              nan              nan
Ne      10.00000000      11.50416667      10.00000000        0       0.00000000              nan              nan              nan
Ne      10.00000000      11.50416667      13.00833333        0       0.00000000              nan              nan              nan
Ne      10.00000000      13.00833333      11.50416667        0       0.00000000              nan              nan              nan
Ne      10.00000000      13.00833333      14.51250000        0       0.00000000              nan              nan              nan
Ne      10.00000000      14.51250000      10.00000000        0       0.00000000              nan              nan              nan
Ne      10.00000000      14.51250000      13.00833333        0       0.00000000              nan              nan              nan
Ne      10.00000000      16.01666667      11.50416667        0       0.00000000              nan              nan              nan
Ne      10.00000000      14.51250000      16.01666667        0       0.00000000              nan              nan              nan
Ne      10.00000000      16.01666667      14.51250000        0       0.00000000              nan              nan              nan
Ne      11.50416667      10.00000000      10.00000000        0       0.00000000              nan              nan              nan
Ne      11.50416667      10.00000000      13.00833333        0       0.00000000              nan              nan              nan
Ne      13.00833333      10.00000000      11.50416667        0       0.00000000              nan              nan              nan
Ne      13.00833333      10.00000000      14.51250000        0       0.00000000              nan              nan              nan
Ne      11.50416667      13.00833333      10.00000000        0       0.00000000              nan              nan              nan
Ne      13.00833333      11.50416667      10.00000000        0       0.00000000              nan              nan              nan
Ne      11.50416667      11.50416667      11.50416667        0       0.00000000              nan              nan              nan
Ne      11.50416667      13.00833333      13.00833333        0       0.00000000              nan              nan              nan
Ne      13.00833333      11.50416667      13.00833333        0       0.00000000              nan              nan              nan
Ne      13.00833333      13.00833333      11.50416667        0       0.00000000              nan              nan              nan
Ne      11.50416667      11.50416667      14.51250000        0       0.00000000              nan              nan              nan
Ne      11.50416667      13.00833333      16.01666667        0       0.00000000              nan              nan              nan
Ne      13.00833333      11.50416667      16.01666667        0       0.00000000              nan              nan              nan
Ne      13.00833333      13.00833333      14.51250000        0       0.00000000              nan              nan              nan
Ne      11.50416667      16.01666667      10.00000000        0       0.00000000              nan              nan              nan
Ne      13.00833333      14.51250000      10.00000000        0       0.00000000              nan              nan              nan
Ne      11.50416667      14.51250000      11.50416667        0       0.00000000              nan              nan              nan
Ne      11.50416667      16.01666667      13.00833333        0       0.00000000              nan              nan              nan
Ne      13.00833333      14.51250000      13.00833333        0       0.00000000              nan              nan              nan
Ne      13.00833333      16.01666667      11.50416667        0       0.00000000              nan              nan              nan
Ne      11.50416667      14.51250000      14.51250000        0       0.00000000              nan              nan              nan
Ne      13.00833333      14.51250000      16.01666667        0       0.00000000              nan              nan              nan
Ne      13.00833333      16.01666667      14.51250000        0       0.00000000              nan              nan              nan
Ne      14.51250000      10.00000000      10.00000000        0       0.00000000              nan              nan              nan
Ne      14.51250000      10.00000000      13.00833333        0       0.00000000              nan              nan              nan
Ne      16.01666667      10.00000000      11.50416667        0       0.00000000              nan              nan              nan
Ne      14.51250000      10.00000000      16.01666667        0       0.00000000              nan              nan              nan
Ne      16.01666667      10.00000000      14.51250000        0       0.00000000              nan              nan              nan
Ne      14.51250000      13.00833333      10.00000000        0       0.00000000              nan              nan              nan
Ne      16.01666667      11.50416667      10.00000000        0       0.00000000              nan              nan              nan
Ne      14.51250000      11.50416667      11.50416667        0       0.00000000              nan              nan              nan
Ne      14.51250000      13.00833333      13.00833333        0       0.00000000              nan              nan              nan
Ne      16.01666667      11.50416667      13.00833333        0       0.00000000              nan              nan              nan
Ne      16.01666667      13.00833333      11.50416667        0       0.00000000              nan              nan              nan
Ne      14.51250000      11.50416667      14.51250000        0       0.00000000              nan              nan              nan
Ne      14.51250000      13.00833333      16.01666667        0       0.00000000              nan              nan              nan
Ne      16.01666667      11.50416667      16.01666667        0       0.00000000              nan              nan              nan
Ne      16.01666667      13.00833333      14.51250000        0       0.00000000              nan              nan              nan
Ne      14.51250000      16.01666667      10.00000000        0       0.00000000              nan              nan              nan
Ne      16.01666667      14.51250000      10.00000000        0       0.00000000              nan              nan              nan
Ne      14.51250000      14.51250000      11.50416667        0       0.00000000              nan              nan              nan
Ne      14.51250000      16.01666667      13.00833333        0       0.00000000              nan              nan              nan
Ne      16.01666667      14.51250000      13.00833333        0       0.00000000              nan              nan              nan
Ne      16.01666667      16.01666667      11.50416667        0       0.00000000              nan              nan              nan
Ne      14.51250000      14.51250000      14.51250000        0       0.00000000              nan              nan              nan
