55
Lattice="30.512334356392763 0.0 0.0 0.0 30.496133972068257 0.0 0.0 0.0 26.381638700208587" Properties=species:S:1:pos:R:3:tags:I:1:initial_magmoms:R:1:forces:R:3 energy=nan pbc="F F F"
Ne      15.25616718      14.96947274      10.00000000        0       0.00000000              nan              nan              nan
Ne      15.25616718      14.96947274      12.12721290        0       0.00000000              nan              nan              nan
Ne      15.25616718      14.96947274      14.25442580        0       0.00000000              nan              nan              nan
Ne      15.25616718      14.96947274      16.38163870        0       0.00000000              nan              nan              nan
Ne      17.00822290      15.53875015      11.06360645        0       0.00000000              nan              nan              nan
Ne      17.00822290      15.53875015      13.19081935        0       0.00000000              nan              nan              nan
Ne      17.00822290      15.53875015      15.31803225        0       0.00000000              nan              nan              nan
Ne      15.25616718      16.81169315      11.06360645        0       0.00000000              nan              nan              nan
Ne      15.25616718      16.81169315      13.19081935        0       0.00000000              nan              nan              nan
Ne      15.25616718      16.81169315      15.31803225        0       0.00000000              nan              nan              nan
Ne      13.50411145      15.53875015      11.06360645        0       0.00000000              nan              nan              nan
Ne      13.50411145      15.53875015      13.19081935        0       0.00000000              nan              nan              nan
Ne      13.50411145      15.53875015      15.31803225        0       0.00000000              nan              nan              nan
Ne      14.17333719      13.47908512      11.06360645        0       0.00000000              nan              nan              nan
Ne      14.17333719      13.47908512      13.19081935        0       0.00000000              nan              nan              nan
Ne      14.17333719      13.47908512      15.31803225        0       0.00000000              nan              nan              nan
Ne      16.33899717      13.47908512      11.06360645        0       0.00000000              nan              nan              nan
Ne      16.33899717      13.47908512      13.19081935        0       0.00000000              nan              nan              nan
Ne      16.33899717      13.47908512      15.31803225        0       0.00000000              nan              nan              nan
Ne      18.76027863      16.10802757      12.12721290        0       0.00000000              nan              nan              nan
Ne      18.76027863      16.10802757      14.25442580        0       0.00000000              nan              nan              nan
Ne      17.00822290      17.38097056      12.12721290        0       0.00000000              nan              nan              nan
Ne      17.00822290      17.38097056      14.25442580        0       0.00000000              nan              nan              nan
Ne      15.25616718      18.65391356      12.12721290        0       0.00000000              nan              nan              nan
Ne      15.25616718      18.65391356      14.25442580        0       0.00000000              nan              nan              nan
Ne      13.50411145      17.38097056      12.12721290        0       0.00000000              nan              nan              nan
Ne      13.50411145      17.38097056      14.25442580        0       0.00000000              nan              nan              nan
Ne      11.75205573      16.10802757      12.12721290        0       0.00000000              nan              nan              nan
Ne      11.75205573      16.10802757      14.25442580        0       0.00000000              nan              nan              nan
Ne      12.42128146      14.04836253      12.12721290        0       0.00000000              nan              nan              nan
Ne      12.42128146      14.04836253      14.25442580        0       0.00000000              nan              nan              nan
Ne      13.09050720      11.98869750      12.12721290        0       0.00000000              nan              nan              nan
Ne      13.09050720      11.98869750      14.25442580        0       0.00000000              nan              nan              nan
Ne      15.25616718      11.98869750      12.12721290        0       0.00000000              nan              nan              nan
Ne      15.25616718      11.98869750      14.25442580        0       0.00000000              nan              nan              nan
Ne      17.42182716      11.98869750      12.12721290        0       0.00000000              nan              nan              nan
Ne      17.42182716      11.98869750      14.25442580        0       0.00000000              nan              nan              nan
Ne      18.09105289      14.04836253      12.12721290        0       0.00000000              nan              nan              nan
Ne      18.09105289      14.04836253      14.25442580        0       0.00000000              nan              nan              nan
Ne      20.51233436      16.67730498      13.19081935        0       0.00000000              nan              nan              nan
Ne      18.76027863      17.95024798      13.19081935        0       0.00000000              nan              nan              nan
Ne      17.00822290      19.22319098      13.19081935        0       0.00000000              nan              nan              nan
Ne      15.25616718      20.49613397      13.19081935        0       0.00000000              nan              nan              nan
Ne      13.50411145      19.22319098      13.19081935        0       0.00000000              nan              nan              nan
Ne      11.75205573      17.95024798      13.19081935        0       0.00000000              nan              nan              nan
Ne      10.00000000      16.67730498      13.19081935        0       0.00000000              nan              nan              nan
Ne      10.66922574      14.61763995      13.19081935        0       0.00000000              nan              nan              nan
Ne      11.33845147      12.55797491      13.19081935        0       0.00000000              nan              nan              nan
Ne      15.23861176      10.00000000      11.41091997        0       0.00000000              nan              nan              nan
Ne      12.00767721      10.49830988      13.19081935        0       0.00000000              nan              nan              nan
Ne      14.17333719      10.49830988      13.19081935        0       0.00000000              nan              nan              nan
Ne      16.33899717      10.49830988      13.19081935        0       0.00000000              nan              nan              nan
Ne      18.50465714      10.49830988      13.19081935        0       0.00000000              nan              nan              nan
Ne      19.17388288      12.55797491      13.19081935        0       0.00000000              nan              nan              nan
Ne      19.84310862      14.61763995      13.19081935        0       0.00000000              nan              nan              nan
