124
Lattice="17.8028689666 0.0 0.0 0.0 17.8028689666 0.0 0.0 0.0 17.8028689666" Properties=species:S:1:pos:R:3:Z:I:1:forces:R:3 energy=-383.901246088 pbc="F F F"
Cu      8.70179511       8.74253542      15.20569724       29       0.00055355      -0.00034932       0.00073270 
Cu      6.39005732       9.75358828      15.25634345       29       0.00032427       0.00010927       0.00033182 
Cu      6.61765311       7.32377865      14.55786662       29      -0.00035753       0.00046733       0.00000329 
Cu     11.05034427       7.71147855      15.07693457       29      -0.00057848       0.00015371       0.00024051 
Cu     10.68145332      10.13086906      14.29873707       29       0.00043511      -0.00020005      -0.00000841 
Cu      8.95215825       6.28895537      14.51649622       29       0.00018725       0.00001950       0.00016055 
Cu      8.31823530      11.14240391      14.36256096       29       0.00036410       0.00027725      -0.00019319 
Cu      6.88531337       4.89028036      13.78055486       29      -0.00027234      -0.00007247      -0.00069020 
Cu      6.00700642      11.23875004      13.24598256       29       0.00003055      -0.00000654      -0.00022381 
Cu      4.94576416       8.89361261      13.36669836       29       0.00035193       0.00055760       0.00001749 
Cu      5.15678215       6.43356470      12.64394147       29       0.00066836       0.00053495      -0.00019218 
Cu     13.01190572       9.06859737      14.10950973       29      -0.00014049       0.00002029       0.00045468 
Cu     13.34987945       6.68432430      14.87463704       29      -0.00020305      -0.00011017      -0.00027334 
Cu     12.63667652      11.46459509      13.26536007       29       0.00019719      -0.00005770      -0.00005527 
Cu     11.30412764       5.28095828      14.34078155       29       0.00053513       0.00003725      -0.00013394 
Cu      9.74024858       8.14863095      13.02035174       29       0.00008409       0.00010823       0.00004593 
Cu     10.28746721      12.50458077      13.39170890       29      -0.00025201      -0.00003338      -0.00008482 
Cu      7.42492934       9.16534803      13.09583556       29      -0.00010872      -0.00003215      -0.00033103 
Cu      9.23230078       3.91385558      13.70922707       29      -0.00020868       0.00062464      -0.00033843 
Cu      5.99871863       8.30510419      11.19266601       29       0.00008175       0.00032120       0.00013392 
Cu      7.94540190       4.23288974      11.59108509       29      -0.00009038       0.00011104       0.00003780 
Cu      7.95609414      12.65935228      12.31648828       29      -0.00016590      -0.00012634       0.00022812 
Cu     14.50214340       7.49366285      12.76369186       29       0.00020393      -0.00030164       0.00003160 
Cu     14.17290686       9.90108614      11.94187368       29       0.00025725      -0.00062123       0.00009852 
Cu      5.46681702       4.05279617      11.82406020       29       0.00003277      -0.00023005       0.00052410 
Cu      5.66014175      12.70257168      11.15934270       29       0.00040383       0.00008890      -0.00027657 
Cu      4.54210452      10.38426005      11.30665058       29       0.00046006      -0.00024043       0.00038195 
Cu     12.22700298      13.79132921      12.37801925       29       0.00006484       0.00019562       0.00039224 
Cu     12.03713320       7.12317840      12.82870617       29      -0.00022329       0.00032975      -0.00038766 
Cu      3.54205533       8.01399058      11.39505893       29      -0.00021667       0.00049377       0.00032680 
Cu     11.69410876       9.50025226      12.05679448       29       0.00007188       0.00075430       0.00030777 
Cu      3.80394432       5.57565363      10.62929223       29      -0.00017304       0.00020612      -0.00001231 
Cu      9.98809339       5.71722870      12.24761517       29      -0.00006713      -0.00006058       0.00056688 
Cu      9.35401233      10.54281637      12.18452533       29       0.00029943       0.00023655       0.00042934 
Cu      7.66823572       6.71495781      12.36714964       29       0.00013918      -0.00033118      -0.00022193 
Cu      7.05224715      10.64070261      11.07843206       29      -0.00051210      -0.00057719      -0.00026216 
Cu      5.65104755       9.76388025       9.11451737       29      -0.00003957       0.00106258       0.00000076 
Cu     13.46394793       5.11970212      12.91077999       29      -0.00022127      -0.00034523       0.00017502 
Cu      6.28366785       5.86407058      10.42128804       29      -0.00010643       0.00073272       0.00004043 
Cu     13.16517302       7.91527462      10.68094905       29       0.00050110      -0.00012420       0.00020024 
Cu     12.06906536      13.82139289       9.85390747       29       0.00032358      -0.00031258      -0.00012983 
Cu     11.40006115       3.70866629      12.36849139       29      -0.00000067      -0.00001098      -0.00000895 
Cu     11.29447089      11.84245977      11.18758109       29       0.00007765      -0.00074401      -0.00043495 
Cu     10.74939703       7.53933543      10.80139553       29       0.00001223       0.00069829      -0.00041794 
Cu      9.94426860      13.96241853      11.30397983       29       0.00002584       0.00025693       0.00007898 
Cu     10.09089090       4.03334811      10.21707500       29      -0.00042228      -0.00005096      -0.00049993 
Cu      8.45920111       8.56402333      10.94888414       29       0.00015608      -0.00024292       0.00011167 
Cu      8.72147270       6.10793105      10.17275561       29      -0.00004276       0.00001841      -0.00041308 
Cu      7.70252841       4.13122729       9.02865440       29       0.00020134      -0.00007023      -0.00003836 
Cu     12.80691368      10.26982886       9.83313148       29       0.00018215      -0.00062949      -0.00004938 
Cu      5.35996431      14.09420268       9.06635852       29      -0.00009509      -0.00032926      -0.00017396 
Cu     14.62064199       5.93673309      10.78051744       29      -0.00035873       0.00030479      -0.00049995 
Cu     13.74219103      12.25274619      11.04394633       29       0.00044591       0.00040359       0.00100458 
Cu      4.25139147      11.81985064       9.18785824       29       0.00029744       0.00007342      -0.00031812 
Cu      5.19224168       3.95878290       9.24325289       29      -0.00013844      -0.00022754      -0.00000698 
Cu      3.19591732       9.47468716       9.30517704       29      -0.00019220       0.00020418       0.00011036 
Cu     12.17067381       5.50180832      10.82465760       29       0.00007335      -0.00001589      -0.00012595 
Cu      2.22922917       7.13997595       9.41339090       29      -0.00008082      -0.00024545      -0.00001306 
Cu      9.01357135      11.99805452      10.11056794       29      -0.00069758      -0.00018511      -0.00021515 
Cu     10.38071115       9.89334495      10.00136866       29      -0.00020758       0.00027546       0.00004957 
Cu     10.84143778       5.97635916       8.79536507       29      -0.00004980      -0.00033790       0.00001077 
Cu      7.63011274      14.06638642      10.18588487       29      -0.00295621      -0.00769441       0.00468298 
Cu     10.09753096       7.50694058       2.54652551       29      -0.00001307       0.00030365       0.00048747 
Cu      9.85042498       9.93916444       3.24723567       29      -0.00043062      -0.00003378       0.00032420 
Cu      7.77292073       8.53267812       2.69458888       29      -0.00013969      -0.00008543       0.00002151 
Cu      9.58817491      12.35418008       4.09559984       29       0.00020657      -0.00006754      -0.00021059 
Cu      7.50275185      10.97091934       3.47579587       29      -0.00057500      -0.00053634       0.00039178 
Cu      5.47181929       9.55989657       2.93070340       29      -0.00001951      -0.00063271      -0.00009186 
Cu     12.15800674       8.86684457       3.16686494       29      -0.00010460       0.00017681      -0.00062404 
Cu      8.09959619       6.12059934       3.43624639       29       0.00016684      -0.00110082       0.00026327 
Cu     11.92626868      11.28475277       3.93132957       29       0.00010159       0.00034727      -0.00038597 
Cu     11.48391584       6.88215046       4.53093442       29      -0.00019770       0.00011418      -0.00035884 
Cu      5.78943412       7.16115928       3.67221824       29      -0.00055364      -0.00055807       0.00031434 
Cu      9.13990335       7.98369714       4.72767755       29      -0.00015106       0.00052637      -0.00022230 
Cu     11.65321274      13.65804692       4.76604231       29       0.00048092       0.00054824       0.00013895 
Cu     13.63361221       9.79635252       5.08176424       29       0.00000895       0.00071045       0.00048782 
Cu      8.85227831      10.43437119       5.49156314       29      -0.00007809      -0.00032428       0.00001901 
Cu      4.32121899       8.77076498       5.04449028       29       0.00021298      -0.00019929       0.00035744 
Cu      6.81852167       9.03860191       4.93156050       29       0.00009299      -0.00001170      -0.00053825 
Cu      6.15189008       4.77905855       4.49137352       29       0.00024424      -0.00030131      -0.00003832 
Cu      9.55853473      13.87554210       6.16717650       29      -0.00022143      -0.00045856       0.00032264 
Cu     13.35214636      12.17983553       5.92073785       29       0.00001494       0.00048869       0.00031290 
Cu      7.44558700      12.54877653       5.50690753       29       0.00019351       0.00021427       0.00010226 
Cu     12.96544857       7.77099474       6.43394274       29       0.00016538       0.00030917      -0.00025866 
Cu      5.38568384      11.10782316       4.92914914       29       0.00034417      -0.00033478      -0.00077724 
Cu      9.52363242       5.47983423       5.42684420       29       0.00021666      -0.00004589      -0.00007106 
Cu     11.18765859       9.33930780       5.34072289       29       0.00005118       0.00097096      -0.00026629 
Cu      4.63890860       6.33570454       5.81623564       29       0.00039601       0.00005640      -0.00007437 
Cu      7.17346737       6.62407370       5.69692477       29      -0.00046412      -0.00014725       0.00056670 
Cu     11.89093685       5.37682781       6.62961702       29       0.00019655      -0.00007241      -0.00047602 
Cu     10.91035629      11.75287326       6.14667574       29       0.00009151      -0.00068070       0.00026405 
Cu     14.99152964      10.64142108       7.12742028       29       0.00027363      -0.00030292       0.00045277 
Cu     10.48719701       7.40166499       6.71666932       29      -0.00048673      -0.00007197       0.00041097 
Cu      5.68840848       8.24627980       7.05155978       29       0.00002200      -0.00001894      -0.00042940 
Cu      8.16195962       8.50681522       6.91054074       29      -0.00061175      -0.00016242      -0.00004202 
Cu      5.08022968       3.97322628       6.65498704       29       0.00038528      -0.00059504       0.00065705 
Cu     14.31214947       8.63740108       8.45142959       29      -0.00011494      -0.00005214       0.00008301 
Cu     11.87384464      13.77701602       7.28625038       29      -0.00000695       0.00025688       0.00034218 
Cu      8.81962948      11.95561778       7.55199330       29      -0.00031508       0.00051093       0.00034943 
Cu     12.60024211      10.23341898       7.30675897       29      -0.00053765      -0.00064788      -0.00022097 
Cu      7.56585175       4.17321877       6.46216550       29       0.00000474      -0.00036430       0.00017087 
Cu      6.74230344      10.57671906       6.93573961       29       0.00065112      -0.00077727       0.00006657 
Cu      3.22701684       7.95482201       7.23238437       29      -0.00033154      -0.00043603      -0.00000720 
Cu      7.43577079      14.02161708       7.61682430       29       0.00013424       0.00013371      -0.00064782 
Cu      5.34782056      12.63640266       6.99800821       29       0.00018445       0.00013601      -0.00046880 
Cu      6.10350027       5.82344242       7.84677631       29       0.00004882       0.00004703       0.00035005 
Cu     15.57363980       8.30138839      10.58203272       29      -0.00012412      -0.00016968      -0.00006224 
Cu      9.91234659       4.00864968       7.60500744       29       0.00007265       0.00003960       0.00025512 
Cu     11.86741581       8.28425608       8.62151276       29       0.00007818      -0.00010985      -0.00026934 
Cu      9.75727653      13.99129957       8.73431096       29      -0.00038067      -0.00003019      -0.00004423 
Cu     13.59755161      12.27251861       8.48127222       29       0.00013185       0.00051930       0.00037554 
Cu      8.56222831       6.07056014       7.66556326       29       0.00029014       0.00022432       0.00038067 
Cu     10.18188844       9.84983870       7.51158590       29      -0.00002925       0.00055887      -0.00052739 
Cu      4.22525455      10.32176994       7.09526883       29       0.00041725      -0.00005630      -0.00029671 
Cu      7.09992889       7.71815114       9.03099606       29       0.00041436      -0.00043355      -0.00021602 
Cu     12.22623493       3.98160706       8.80470991       29      -0.00076606      -0.00015083       0.00010399 
Cu      3.61329438       5.53588185       8.02960605       29      -0.00019597       0.00002590       0.00009734 
Cu     13.33864696       6.28011801       8.61561831       29      -0.00006274       0.00010506      -0.00028662 
Cu      9.47895188       7.97375589       8.83446904       29       0.00030565       0.00023700      -0.00036587 
Cu     11.12640121      11.85215529       8.66431717       29      -0.00027453       0.00013843      -0.00109269 
Cu     15.20944499      10.64907533       9.67536612       29      -0.00053415      -0.00043896       0.00015734 
Cu      8.11646901      10.00845422       8.92578112       29       0.00027905       0.00045573      -0.00001395 
Cu      4.67116185       7.43720734       9.22307017       29      -0.00004436      -0.00020614       0.00002680 
Cu      6.73827459      12.04973065       8.99680490       29       0.00202275       0.00769900      -0.00414947 
