124
Lattice="17.6464713394 0.0 0.0 0.0 17.6464713394 0.0 0.0 0.0 17.6464713394" Properties=species:S:1:pos:R:3:Z:I:1:forces:R:3 energy=-383.323636842 pbc="F F F"
Cu      9.47303974      10.39180854      15.43550697       29       0.00032153       0.00311340       0.00057928 
Cu     10.27834226       8.15500859      14.56703217       29      -0.00099902       0.00041123       0.00229296 
Cu      7.75584567       8.69222019      14.66872751       29      -0.00328072       0.00027674      -0.00045577 
Cu      7.45242685      11.20131299      14.14556225       29       0.00333122      -0.00361777      -0.00120811 
Cu      6.83034821       4.72583847      12.85905543       29      -0.00170171       0.00113155      -0.00300101 
Cu      5.69375058       9.48882053      13.35172820       29      -0.00119464      -0.00185680      -0.00227845 
Cu      6.04198055       6.98057818      13.80390037       29      -0.00218699      -0.00202547       0.00101114 
Cu     11.53461535      10.33339780      13.96550704       29       0.00006231       0.00363770       0.00106005 
Cu     11.07190771       5.90161216      13.61901520       29       0.00138218       0.00184314       0.00006210 
Cu      9.78293200      12.21398311      13.70027595       29      -0.00556554      -0.00165004      -0.00234960 
Cu      8.54981282       6.40970630      13.78491135       29       0.00052228      -0.00120859      -0.00049085 
Cu      7.74151976      13.05148402      12.37119272       29       0.00288086      -0.00323737      -0.00111266 
Cu      9.34198180       4.18598547      12.77816040       29       0.00199546      -0.00059672       0.00104798 
Cu     12.10929291       7.54465739      10.59719355       29      -0.00118169       0.00493908      -0.00243618 
Cu     12.37156992       8.07028243      13.07217663       29       0.00234974       0.00158881       0.00423438 
Cu      3.70672966      10.25952736      11.91060321       29       0.00152868       0.00062790       0.00262996 
Cu      3.46605688      12.72093054      11.34745813       29       0.00085000       0.00138346       0.00114823 
Cu      9.26045311       9.85506666      13.03990992       29       0.00343492       0.00207245      -0.00027491 
Cu     10.06193200       7.61833559      12.14679516       29       0.00355569       0.00013269      -0.00176120 
Cu      4.02096502       7.76121792      12.42745573       29       0.00024843      -0.00499794      -0.00132034 
Cu      7.25071440      10.65275364      11.73278167       29      -0.00286061      -0.00247273       0.00140158 
Cu      7.55145769       8.15553729      12.24806081       29       0.00000710       0.00347987       0.00254378 
Cu      5.86225303       6.45865972      11.37552870       29       0.00146467      -0.00033652       0.00233637 
Cu     11.86729916      12.17711248      12.19720982       29       0.00247490       0.00355298      -0.00247753 
Cu      5.42712943      11.98525126      12.76498001       29      -0.00136436      -0.00017813       0.00130862 
Cu     10.07939524      13.99886312      11.87205196       29       0.00069504       0.00365012       0.00198046 
Cu     11.82730801       3.71082407      12.62183117       29       0.00414903      -0.00204622       0.00170079 
Cu      7.78420914       3.50988226      10.81840152       29       0.00131019      -0.00066358      -0.00331557 
Cu      8.34690731       5.91011505      11.30279226       29       0.00606267       0.00088771      -0.00754262 
Cu     11.31304747       9.79025323      11.54755782       29      -0.00345422       0.00213284      -0.00338114 
Cu     13.57479144      10.26050357      12.40967032       29       0.00079840       0.00098800       0.00045254 
Cu     10.82586506       5.42387334      11.15962413       29       0.00051470      -0.00119803      -0.00162664 
Cu      9.56655260      11.66046606      11.28390694       29       0.00200261      -0.00024162      -0.00019058 
Cu     13.12767906       5.82671955      12.07658653       29       0.00088552       0.00144032      -0.00366163 
Cu      7.27128769       9.53181057       2.21096437       29       0.00129259      -0.00416670      -0.00049502 
Cu      6.03728893       7.38307537       2.80239934       29       0.00038617      -0.00396070       0.00161073 
Cu      9.00978921      11.28883524       2.98140687       29      -0.00047106      -0.00257485       0.00524786 
Cu      6.51929816      11.75728606       3.17242016       29      -0.00151630       0.00148657       0.00405822 
Cu      8.39544898       7.74197901       3.54705670       29       0.00263476       0.00127904      -0.00218886 
Cu      5.21760447       9.61038497       3.70750661       29       0.00036067      -0.00098965      -0.00275916 
Cu     10.76525616      12.95299513       3.92364778       29       0.00298273       0.00112408       0.00098180 
Cu      8.27317301      13.47906197       4.02926916       29      -0.00129153       0.00096367      -0.00007609 
Cu      4.03496134       7.42864936       4.36395819       29      -0.00215181       0.00180794      -0.00075553 
Cu     10.14429794       9.46395638       4.30714519       29      -0.00067716       0.00075853      -0.00273187 
Cu      7.58760764       9.99142332       4.57444991       29       0.00044855       0.00448909       0.00051292 
Cu      5.69653249       5.51886006       4.56909348       29      -0.00213925      -0.00265210       0.00345019 
Cu      4.48759343      11.83627724       4.75011368       29       0.00169614       0.00041224      -0.00004315 
Cu     10.48113682       6.91474297       4.90102178       29       0.00137522       0.00169330      -0.00094239 
Cu      6.35912606       7.85215506       5.16408933       29       0.00262874      -0.00082141       0.00237466 
Cu      3.24333685       9.66883306       5.34692085       29       0.00260972       0.00596855      -0.00220986 
Cu     11.86571416      11.13448065       5.23519913       29      -0.00046497       0.00425570      -0.00350707 
Cu      8.08711853       5.88237905       5.29102746       29      -0.00322072       0.00155163      -0.00010596 
Cu      9.31901092      11.70276302       5.42310823       29      -0.00108633       0.00006052      -0.00242450 
Cu      6.80516623      12.23160345       5.56861264       29       0.00186114      -0.00367060      -0.00550534 
Cu     12.24476326       8.65380895       5.74739649       29      -0.00009159      -0.00169723       0.00134549 
Cu     12.33661083      13.52719056       5.86130476       29      -0.00056358      -0.00416425       0.00546025 
Cu      9.83179269      14.14797633       5.95655601       29      -0.00212484      -0.00017503       0.00162881 
Cu      8.67073621       8.24228581       5.93618842       29      -0.00208228      -0.00254568      -0.00058795 
Cu      7.29878558      14.60804291       6.11649248       29       0.00068423       0.00035777      -0.00000298 
Cu      5.54289598      10.09250345       6.14547276       29      -0.00525132       0.00740998      -0.00219901 
Cu      3.74625148       5.60242189       6.19423994       29       0.00168207       0.00378846      -0.00032986 
Cu     14.09365650      11.71542740       6.20654650       29      -0.00190655      -0.00228222       0.00083432 
Cu      4.97369514      13.59311914       6.55581521       29      -0.00513139       0.00136526      -0.00087146 
Cu      5.47365368       3.74736003       6.45508148       29       0.00119190       0.00100058       0.00073551 
Cu     12.50377762       6.16018931       6.38242947       29       0.00194445       0.00330804       0.00087250 
Cu      4.33554607       7.93140001       6.75264645       29       0.00227613      -0.00024306      -0.00185929 
Cu     10.34993640       9.91645904       6.76026939       29      -0.00239156      -0.00180384      -0.00101000 
Cu     10.18532896       5.07050490       6.73435519       29      -0.00033844       0.00161221      -0.00133512 
Cu     14.50812940       9.24429281       6.73308347       29       0.00046062       0.00039875       0.00106756 
Cu      7.85247728      10.47915668       6.95427079       29      -0.00112641      -0.00426797       0.00051884 
Cu      6.06617440       6.04562245       6.97951037       29       0.00435893       0.00308132      -0.00575525 
Cu      3.64538520      11.45642496       7.14319283       29       0.00216174       0.00406867      -0.00363302 
Cu      7.83868286       4.13343935       7.15810499       29       0.00190367      -0.00352072      -0.00131562 
Cu     10.66426865       7.47193265       7.30301325       29      -0.00044735      -0.00004220       0.00337408 
Cu     10.85815018      12.29234418       7.35467502       29      -0.00259724      -0.00019536      -0.00280134 
Cu      8.33436922      12.85098693       7.50546897       29       0.00046176       0.00854710       0.00152661 
Cu      6.63631607       8.36167052       7.53808661       29      -0.00173426      -0.00352933      -0.00222016 
Cu      2.47246679       9.23977131       7.75650359       29      -0.00143318       0.00101153      -0.00437940 
Cu      8.37512700       6.48428108       7.70232485       29       0.00058855       0.00011748       0.00054333 
Cu     12.57864292      10.45928966       7.64988276       29       0.00253894      -0.00119426       0.00102216 
Cu      6.01458644      11.84569864       7.94923200       29       0.00068677      -0.00203929       0.00014208 
Cu     11.36248190      14.65522294       7.94568596       29       0.00022906      -0.00071245      -0.00235941 
Cu      8.83928596      15.20281429       8.07712719       29      -0.00002176      -0.00297851      -0.00215154 
Cu      2.77660638       6.73898681       8.28187097       29       0.00023343       0.00246845       0.00026661 
Cu     12.95257352       7.92098656       8.15522751       29      -0.00168871      -0.00039370       0.00427500 
Cu      8.87210928       8.77381049       8.28670045       29      -0.00054052       0.00008359       0.00384377 
Cu     13.16420551      12.87622987       8.24270567       29       0.00083104      -0.00372902       0.00110834 
Cu      6.48506661      14.26496499       8.52567288       29       0.00239565       0.00378317       0.00270870 
Cu      4.76716291       9.67390032       8.54821574       29       0.00495607       0.00094660      -0.00444835 
Cu      4.45998056       4.80308107       8.52653744       29       0.00040682       0.00015577       0.00369748 
Cu     11.12550037       3.35512752       8.35433240       29      -0.00165668      -0.00091861      -0.00137001 
Cu     14.85556937      10.97158719       8.53064676       29      -0.00383064      -0.00444320      -0.00139429 
Cu      6.27861748       2.98410421       8.76163206       29      -0.00440866      -0.00406405       0.00239855 
Cu      4.18335150      13.18812959       8.96542832       29       0.00090332      -0.00357535       0.00003564 
Cu      8.76566228       2.44365705       8.75197646       29      -0.00016960       0.00139557      -0.00219989 
Cu      9.36709117      11.06499577       8.86823828       29      -0.00276340       0.00211267       0.00066339 
Cu     11.70321633       5.74327244       8.75269030       29      -0.00328368      -0.00259732       0.00224307 
Cu      5.07425477       7.18082737       9.06696390       29      -0.00374269      -0.00062029      -0.00052518 
Cu     11.07457288       9.22591369       9.11960142       29       0.00173432      -0.00256895       0.00096954 
Cu     15.17400454       8.44417273       9.07139790       29      -0.00195021      -0.00400691       0.00016661 
Cu      7.09108572      10.07930989       9.31662306       29      -0.00045227      -0.00285236       0.00086343 
Cu      9.31167265       4.77659843       9.20932367       29       0.00052666       0.00228847       0.00403377 
Cu      6.83665522       5.29847628       9.27849832       29       0.00255473      -0.00057886       0.00112042 
Cu      2.92844360      11.00295550       9.56726971       29      -0.00011298       0.00165727       0.00181456 
Cu      9.86544187      13.41651797       9.46018991       29      -0.00638874      -0.00399572      -0.00118356 
Cu      9.85042940       7.11007413       9.69689818       29       0.00007387      -0.00433712      -0.00029380 
Cu     11.61115515      11.58446579       9.73960041       29       0.00335898      -0.00153179       0.00438581 
Cu      7.38876947       7.62724232       9.81484138       29       0.00374972       0.00019626      -0.00114440 
Cu      7.55870253      12.44026882       9.91326773       29       0.00103158       0.00356617       0.00268884 
Cu     13.99347201       6.21458235       9.69518166       29       0.00109843       0.00083459       0.00534777 
Cu      3.16821451       8.49428308      10.11639949       29      -0.00298038      -0.00300685      -0.00190939 
Cu     13.31546028       9.71836598       9.99756038       29      -0.00243262      -0.00282181      -0.00121349 
Cu      5.27953472      11.39868983      10.33135670       29       0.00515328       0.00198029       0.00601710 
Cu     12.12678912      13.93384582      10.32582356       29       0.00080553       0.00076986       0.00010155 
Cu      8.06171269      14.78412228      10.49251963       29      -0.00517285       0.00035985      -0.00092093 
Cu     12.67107296       4.05114993      10.27428959       29      -0.00075978       0.00025066      -0.00262347 
Cu      3.54773810       5.99840953      10.61054045       29       0.00246847      -0.00012008       0.00025704 
Cu      9.06034782       9.31323047      10.64848104       29       0.00119116      -0.00223089      -0.00117026 
Cu     13.86732661      12.07482402      10.60519190       29      -0.00202274      -0.00299774      -0.00406131 
Cu     14.37099320       8.00894182      11.47081541       29      -0.00262301       0.00299517      -0.00203344 
Cu      5.54202640       8.93299396      10.87908199       29      -0.00162498       0.00190975       0.00593201 
Cu      5.73369834      13.78424578      10.93977966       29       0.00018001      -0.00019130      -0.00019846 
Cu      5.30720276       4.11826248      10.84215352       29      -0.00312187      -0.00363712       0.00377211 
Cu     10.30640224       3.02904748      10.71401888       29      -0.00014909       0.00481186       0.00032203 
