124
Lattice="18.2805593327 0.0 0.0 0.0 18.2805593327 0.0 0.0 0.0 18.2805593327" Properties=species:S:1:pos:R:3:Z:I:1:forces:R:3 energy=-383.305271066 pbc="F F F"
Cu      8.86533480      12.96745906      14.59862856       29      -0.00106626       0.00020579       0.00007823 
Cu      9.70297088      10.59455540      14.85748862       29      -0.00045756      -0.00104832      -0.00071616 
Cu      7.19962156      11.09049252      15.09167006       29      -0.00183051      -0.00061744      -0.00107959 
Cu      6.53076035      12.96804414      13.51162078       29      -0.00208103      -0.00065678      -0.00113998 
Cu      8.01420237       8.67167076      15.26972550       29      -0.00246470      -0.00102885      -0.00025660 
Cu      5.55297876       9.19795045      15.48652460       29      -0.00091441      -0.00025192      -0.00259695 
Cu      4.89278072      11.06741129      13.93238335       29       0.00043380       0.00047866      -0.00033336 
Cu      6.23744036       7.13534245      14.19843845       29      -0.00002600      -0.00012284      -0.00011997 
Cu      8.73214852       6.58541944      13.95907544       29       0.00106979      -0.00093473      -0.00146560 
Cu     11.34952743      12.51518668      14.27067003       29       0.00074582       0.00064361      -0.00096364 
Cu     12.17127115      10.09740397      14.47019515       29       0.00052972       0.00060863       0.00020395 
Cu      9.92386634      13.34282551      12.36791273       29       0.00061930      -0.00068922       0.00070109 
Cu     10.50956306       8.16555416      14.96634494       29       0.00018542      -0.00050988      -0.00072496 
Cu      4.30027388      12.89566008      12.28739688       29       0.00043170       0.00036608      -0.00157748 
Cu     11.22760940       6.11474363      13.59877291       29       0.00096771      -0.00033217       0.00077133 
Cu     10.76882007      10.87136216      12.56640696       29      -0.00190081       0.00103533      -0.00071968 
Cu     13.19299763      11.62965443      12.69372548       29      -0.00086517      -0.00023998       0.00114752 
Cu      8.30499384      11.35376868      12.85900502       29       0.00093082      -0.00034530      -0.00137221 
Cu      9.11733139       8.92861312      13.06612566       29      -0.00005216       0.00310825      -0.00218724 
Cu      4.99891822       6.51524585      12.00524385       29      -0.00021495      -0.00147929      -0.00097510 
Cu      4.31517651       8.59865491      13.34982239       29       0.00007895       0.00065917       0.00037147 
Cu      6.96081661       5.08636908      12.82742751       29       0.00027759      -0.00009097      -0.00025854 
Cu      6.65651061       9.44713998      13.29090513       29       0.00139875      -0.00138369      -0.00223569 
Cu      6.02363229      11.31789624      11.68679556       29       0.00021253       0.00138290      -0.00163729 
Cu      7.34502440       7.40107433      11.99444216       29      -0.00303741      -0.00474677       0.00113765 
Cu     12.33133258      14.00096349      12.43568517       29      -0.00123044      -0.00120945      -0.00157929 
Cu     13.95154002       9.17886153      12.84507654       29       0.00144798       0.00037269       0.00132947 
Cu      7.61525146      13.34565756      11.26252541       29       0.00033337       0.00184513      -0.00086881 
Cu      3.64406502      10.49369218      11.79809296       29      -0.00108318       0.00045262      -0.00069339 
Cu     13.35734158       6.73391355      12.31007390       29      -0.00169654      -0.00020277      -0.00034898 
Cu      9.46351189       4.57172683      12.53495941       29      -0.00048063       0.00021438      -0.00124502 
Cu     11.58775525       8.42717969      12.75223664       29       0.00145673      -0.00588860       0.00652305 
Cu     10.64337526       8.56123473       3.00388889       29       0.00035961       0.00114841      -0.00010167 
Cu      9.81385605      10.98323800       2.79403473       29       0.00231284       0.00016830       0.00040415 
Cu      8.96239600       6.67127129       3.46415060       29      -0.00052176      -0.00060123      -0.00068538 
Cu      8.13295196       9.08808389       3.18466521       29      -0.00096331       0.00237072       0.00092821 
Cu      7.34041694      11.50044375       3.04911567       29       0.00016966      -0.00029832       0.00175133 
Cu      7.28733580       4.84993395       4.00225556       29      -0.00165723       0.00012469      -0.00073475 
Cu      6.45585604       7.22515431       3.72780729       29       0.00031712      -0.00058581       0.00400186 
Cu      5.67149420       9.63617854       3.51962477       29      -0.00094684       0.00009441       0.00183390 
Cu     12.90817717       8.60223460       4.21207272       29      -0.00101341      -0.00011240      -0.00035378 
Cu     11.25940605       6.66696516       4.62265433       29       0.00052182       0.00066869       0.00034790 
Cu     11.60487398      12.52704346       3.87151658       29      -0.00260143      -0.00013657       0.00187528 
Cu      9.13016161      13.08364933       4.04532830       29       0.00033323       0.00121229       0.00116050 
Cu      9.54146642       4.81669668       5.14925502       29      -0.00108201      -0.00112804      -0.00014311 
Cu     11.13969344      10.27238161       4.74173562       29       0.00007948      -0.00052347       0.00028020 
Cu     13.50868026      11.03933453       4.74265210       29      -0.00108887      -0.00135704       0.00069939 
Cu      9.48191005       8.39570462       5.17796948       29       0.00167270       0.00049195       0.00129014 
Cu      5.49175311       5.67709510       5.58281010       29       0.00124336       0.00032023       0.00099404 
Cu      8.63636713      10.82504371       4.98900991       29      -0.00054443       0.00040148      -0.00375071 
Cu      4.65112207       8.06755203       5.31447594       29      -0.00005655       0.00057754      -0.00051901 
Cu      7.81559191       6.56447497       5.69545653       29      -0.00159976       0.00010277       0.00016997 
Cu      6.97396799       8.97290079       5.45917236       29      -0.00075938      -0.00060411      -0.00233475 
Cu     13.50382474       6.74488174       5.88099995       29      -0.00031369      -0.00069954      -0.00059090 
Cu      6.11139725      11.41096993       5.22491642       29       0.00140263       0.00091092       0.00226135 
Cu     11.81633017       4.84915090       6.35625356       29      -0.00063641      -0.00097641      -0.00138341 
Cu      7.40628924       4.19821912       6.44657193       29       0.00092873      -0.00184643       0.00076711 
Cu     10.90510533      14.57620301       5.19615018       29      -0.00123309      -0.00063584       0.00185852 
Cu     11.74168289       8.42983178       6.37937776       29       0.00032271      -0.00029534      -0.00211600 
Cu     14.16371036       9.17979945       6.38632580       29      -0.00143724      -0.00050291      -0.00031050 
Cu     10.41250131      12.35725780       6.05687559       29       0.00044505       0.00226000      -0.00229778 
Cu     10.06308828       6.54334686       6.85048603       29       0.00000585       0.00044903      -0.00067865 
Cu     12.83813913      13.15620633       6.03309464       29      -0.00012404      -0.00163232      -0.00020062 
Cu      7.86846557      13.00283587       6.23227990       29      -0.00096824      -0.00003839       0.00257099 
Cu      3.74552185       6.55256459       7.21749209       29      -0.00007443      -0.00074368       0.00204890 
Cu     14.03120683       4.94431465       7.58139986       29       0.00030875       0.00040921       0.00073440 
Cu      9.68956513       4.16255766       7.63796931       29      -0.00000438      -0.00017867       0.00051247 
Cu      9.96481400      10.11064598       6.90879643       29       0.00339247       0.00060114       0.00001922 
Cu     12.33290711      10.86199897       6.90835802       29      -0.00077670      -0.00326960       0.00035899 
Cu      6.02467421       7.42898408       7.29014924       29       0.00173139      -0.00014363       0.00237374 
Cu      5.06473502       9.88888118       7.02388095       29      -0.00001430       0.00148498       0.00010704 
Cu     14.69594910      11.63250460       6.94676753       29      -0.00042228      -0.00023871       0.00113048 
Cu      8.32785931       8.27734164       7.37425121       29      -0.00231397      -0.00205571       0.00241496 
Cu      7.45633525      10.70724979       7.15643104       29      -0.00337930       0.00243747       0.00007196 
Cu      5.58837794       5.03810953       8.07822372       29      -0.00137347       0.00089699       0.00014913 
Cu     12.28702897       6.61840330       8.06517838       29       0.00179851      -0.00004581       0.00022981 
Cu      7.93666884       5.93048878       8.14010937       29      -0.00048887       0.00200981       0.00134939 
Cu     14.68706755       7.33436396       8.09996873       29      -0.00128778      -0.00038661       0.00079293 
Cu      9.65531807      14.47346433       7.35799614       29       0.00114770       0.00007076      -0.00078380 
Cu      5.69702457      12.37693188       7.61433873       29       0.00022085       0.00196129       0.00053672 
Cu     12.05889339      15.16197037       7.39062897       29      -0.00119046      -0.00311875       0.00091212 
Cu     11.95645999       4.26713140       8.86394336       29       0.00052417      -0.00052896      -0.00247855 
Cu      7.54351446       3.61438955       8.95295495       29       0.00129778      -0.00148549      -0.00035747 
Cu     10.54492771       8.29182189       8.54787773       29       0.00084377       0.00060958      -0.00155702 
Cu     12.91941880       9.01704083       8.58577367       29      -0.00065257       0.00060152       0.00026948 
Cu      9.20027098      12.21030282       8.20198072       29      -0.00185643       0.00010656       0.00068128 
Cu     15.27691948       9.78268416       8.63456416       29       0.00026285      -0.00101675       0.00057726 
Cu     11.56537141      12.93966639       8.23553677       29       0.00263985       0.00275908       0.00126584 
Cu     13.95588214      13.71241043       8.27633515       29      -0.00098492      -0.00017928      -0.00245544 
Cu      4.21510098       8.33747115       8.88021369       29       0.00010095       0.00000049       0.00027352 
Cu     10.20176918       5.96277088       9.34466094       29       0.00066567      -0.00167398       0.00133175 
Cu      6.52570899       9.20244892       8.93652114       29      -0.00004371      -0.00181738      -0.00094435 
Cu      8.81896813       9.96495235       9.00757888       29      -0.00005899       0.00180601      -0.00040965 
Cu     11.10481328      10.68248953       9.06259445       29       0.00133275      -0.00020830       0.00076665 
Cu      7.48609612      13.91999257       8.69704040       29       0.00183616      -0.00019273       0.00089108 
Cu     13.43797886      11.43342085       9.11305460       29      -0.00093466      -0.00249793       0.00023947 
Cu      3.85144267       6.00792323       9.72448164       29       0.00082010       0.00048864      -0.00082184 
Cu      9.82029772       3.65204613      10.16041305       29       0.00108719      -0.00174073      -0.00084731 
Cu     13.72922862       5.80662194       9.94426646       29      -0.00064837      -0.00062342      -0.00026300 
Cu     15.78108875      12.20263322       9.16462281       29       0.00160516       0.00104934       0.00059271 
Cu      6.14461133       6.85856655       9.76388682       29       0.00086899      -0.00113843      -0.00087565 
Cu      8.45588049       7.70180726       9.79828988       29       0.00015850       0.00072515       0.00115855 
Cu      4.73479634      10.84456768       9.49181344       29      -0.00073124      -0.00095254      -0.00069367 
Cu      7.11440420      11.60963923       9.50473582       29       0.00000360       0.00057753      -0.00086818 
Cu      2.49947058       9.87449591       9.69442565       29       0.00110347      -0.00084829      -0.00020602 
Cu      5.76145615       4.52637191      10.58961177       29       0.00070672       0.00068939      -0.00186344 
Cu      8.08465288       5.41382263      10.61338467       29      -0.00077822      -0.00084229       0.00178217 
Cu     11.96578160       7.49599256      10.42054914       29      -0.00037317       0.00227841       0.00198139 
Cu     14.38829795       8.23546218      10.49440278       29       0.00049224       0.00050082       0.00008498 
Cu      9.82491670      13.98483058       9.87939176       29      -0.00058240       0.00145599      -0.00057252 
Cu     12.26193067      14.64916094       9.92290650       29       0.00011852      -0.00086308      -0.00240176 
Cu      5.37074298      13.23579135      10.06589835       29      -0.00026952      -0.00032771      -0.00012784 
Cu      7.69910915       3.11858896      11.42917388       29       0.00036904       0.00030080       0.00038619 
Cu     11.62765742       5.13013497      11.26379225       29       0.00188255       0.00095790       0.00111065 
Cu     10.19133291       9.20346882      10.85953777       29      -0.00043313      -0.00171444       0.00154147 
Cu      9.35223594      11.65371494      10.65334522       29       0.00158136      -0.00017638       0.00231861 
Cu     12.55507896       9.93477103      10.95045897       29       0.00139841       0.00627748      -0.00687421 
Cu      3.13081863       7.98892392      11.15954485       29       0.00030927       0.00135882      -0.00032545 
Cu      5.40946035       8.88293278      11.11228408       29      -0.00119994       0.00233683      -0.00079485 
Cu     14.91487621      10.70059816      11.01154887       29       0.00103184      -0.00125863       0.00158848 
Cu     11.71146608      12.36269297      10.74714970       29      -0.00031342      -0.00172900      -0.00050921 
Cu      7.75098235       9.69904847      11.11690823       29       0.00032037       0.00035426       0.00162029 
Cu     14.09650826      13.12881597      10.81126366       29      -0.00017325       0.00215283      -0.00050675 
Cu      9.84203024       6.88456314      11.70377330       29       0.00511356       0.00581632      -0.00082814 
