124
Lattice="18.0806473122 0.0 0.0 0.0 18.0806473122 0.0 0.0 0.0 18.0806473122" Properties=species:S:1:pos:R:3:Z:I:1:forces:R:3 energy=-383.737265135 pbc="F F F"
Cu      8.91707243       9.41151383      14.30624778       29       0.00344920      -0.00022856       0.00012300 
Cu      7.43041899      11.55386575      14.20540721       29      -0.00076298       0.00172576      -0.00281739 
Cu     10.40302807       7.26501243      14.26522009       29       0.00322080      -0.00120215      -0.00250825 
Cu      6.48622765       9.33002616      13.32388892       29      -0.00249392      -0.00049188       0.00321509 
Cu      8.19413739       4.62266740      13.09033648       29      -0.00240993       0.00049126       0.00131088 
Cu      9.93926689      11.78470718      13.69033796       29       0.00148312      -0.00431320       0.00213319 
Cu     12.42397126      11.92456637      13.03656188       29      -0.00123059       0.00003351      -0.00017258 
Cu      7.21487420      14.04265048      14.15049204       29      -0.00145002      -0.00223303       0.00125055 
Cu     11.44370905       9.59900435      13.71720446       29       0.00206140      -0.00043037      -0.00173528 
Cu      5.15624152      12.55594983      13.93227925       29       0.00094392       0.00188234       0.00345399 
Cu      8.02639641       7.12921680      13.35867233       29       0.00241199      -0.00231270       0.00243899 
Cu     12.24078610      14.41824781      12.97449189       29       0.00046569      -0.00459794       0.00271409 
Cu     10.55699759       4.79501609      14.02246659       29      -0.00471718      -0.00318294      -0.00155989 
Cu      9.73530168      14.30113651      13.61529962       29      -0.00059402       0.00165660      -0.00200106 
Cu      4.18869833      10.33410760      13.01242764       29       0.00343410       0.00221443       0.00193203 
Cu      9.01451015      10.88846994       3.77439953       29      -0.00099118      -0.00195597       0.00256433 
Cu      7.54327604      12.94794310       3.80980037       29      -0.00389373      -0.00135583       0.00050026 
Cu     10.50739734       8.79290376       3.81837648       29       0.00477020       0.00155490       0.00002999 
Cu     11.97247529       6.73485691       3.93663402       29       0.00107051       0.00263728       0.00228577 
Cu      7.98340243       8.59723140       4.33471251       29      -0.00135932       0.00049928       0.00146054 
Cu      6.50541396      10.70445384       4.36421092       29       0.00246764      -0.00100044       0.00005927 
Cu      9.49317882       6.51706419       4.44593889       29      -0.00016113       0.00096336       0.00027860 
Cu     11.41483153      11.03472598       4.70623938       29       0.00610699       0.00193425       0.00160107 
Cu      9.89734069      13.11510389       4.72826370       29      -0.00291268       0.00427307      -0.00176625 
Cu     12.88522415       8.92461480       4.81340098       29       0.00184663       0.00343153      -0.00237378 
Cu      5.49102225       8.42266827       4.99626378       29       0.00047934      -0.00050986      -0.00128925 
Cu      6.98372658       6.33139981       5.03578777       29      -0.00106464      -0.00069646       0.00137576 
Cu      4.53319187       6.18271197       5.68323533       29       0.00276396       0.00195738       0.00107775 
Cu      5.83815742      12.81889110       5.67928203       29      -0.00091332      -0.00346626      -0.00274929 
Cu     12.26743773      13.24440822       5.72389408       29       0.00062164       0.00299813       0.00033864 
Cu     13.76197632      11.15085225       5.76597896       29      -0.00086208       0.00164300      -0.00126998 
Cu     11.23979356       5.20859925       5.80511137       29       0.00236573      -0.00082480       0.00245290 
Cu      7.93320587      14.31372050       5.90483032       29      -0.00225881      -0.00141167      -0.00258838 
Cu      9.59314512       9.75659546       5.91248679       29       0.00033895      -0.00109776       0.00394597 
Cu      8.12056786      11.81689843       5.92319093       29      -0.00462814       0.00121560      -0.00442327 
Cu     11.05865252       7.69924109       6.01464037       29       0.00127649       0.00094810      -0.00021282 
Cu     13.34192152       6.71959228       6.07790559       29      -0.00001929      -0.00041914      -0.00079151 
Cu      4.76901898      10.54551363       6.26331641       29      -0.00147943       0.00122411      -0.00292316 
Cu      8.72306461       4.97118312       6.35164204       29      -0.00104840      -0.00257289       0.00038145 
Cu      7.09444178       9.57199276       6.49861986       29       0.00280930       0.00023818       0.00116576 
Cu      8.58237111       7.49304620       6.54237765       29       0.00139798       0.00172228       0.00122933 
Cu     14.57090783      13.33244539       6.76421994       29       0.00103630      -0.00032532       0.00164919 
Cu      3.80576045       8.25212910       6.93926957       29       0.00124993      -0.00283625      -0.00074657 
Cu     10.46965547      11.97412201       6.86318290       29      -0.00162195      -0.00160731       0.00038194 
Cu     10.31635845      14.50213385       6.85369814       29      -0.00114024      -0.00055549      -0.00017473 
Cu     11.95794634       9.88957009       6.90817121       29      -0.00183067       0.00323902       0.00050278 
Cu      6.22097663       4.83596395       6.98893586       29       0.00261667       0.00143700      -0.00291024 
Cu     14.27946868       8.93203557       6.98035324       29      -0.00000273       0.00006981      -0.00137961 
Cu      6.12673675       7.33436746       7.17258114       29      -0.00382780      -0.00569508      -0.00377064 
Cu      4.15682609      12.64655841       7.62239865       29       0.00031691       0.00165962       0.00010976 
Cu     10.47408976       3.71810514       7.75041471       29       0.00038725       0.00238597       0.00447816 
Cu      6.43028996      11.67613765       7.80793095       29       0.00049945      -0.00008889      -0.00056458 
Cu      6.21154142      14.19958959       7.81509734       29      -0.00143064      -0.00180938       0.00095637 
Cu     10.32261663       6.18946430       7.89863528       29      -0.00338064      -0.00331755       0.00302576 
Cu     12.77601937      12.07011079       7.89088364       29      -0.00038613      -0.00349991       0.00299842 
Cu     12.67008638      14.58032917       7.88379682       29       0.00179108       0.00170719      -0.00059155 
Cu     12.61668136       5.16723497       7.96882430       29       0.00093435      -0.00251068      -0.00061373 
Cu     15.09213732      11.16437886       7.96618549       29      -0.00313974       0.00226902      -0.00055113 
Cu      8.69710723      10.68969466       8.03524451       29       0.00190356      -0.00549124      -0.00067583 
Cu      8.51472800      13.16367083       8.03281107       29      -0.00113961      -0.00017124      -0.00146610 
Cu      8.34258492      15.62471223       8.07303461       29      -0.00302809      -0.00112280      -0.00122538 
Cu     10.16108882       8.65584807       8.09209369       29      -0.00003416       0.00172331      -0.00426495 
Cu      4.27171746       6.04099786       8.20640455       29       0.00162451       0.00481978       0.00136650 
Cu      3.14088165      10.36475387       8.24814977       29      -0.00133238       0.00194185       0.00450030 
Cu     12.42208460       7.69321921       8.19497860       29       0.00172196       0.00195534      -0.00026760 
Cu     14.66202856       6.73923411       8.28551873       29       0.00063483       0.00079110      -0.00133848 
Cu      7.96855735       3.53200588       8.34414245       29       0.00479732       0.00251292       0.00178473 
Cu      5.41977006       9.40623333       8.43795898       29       0.00412221      -0.00217966       0.00015435 
Cu      7.82425064       6.00427931       8.48766876       29       0.00174788      -0.00483306      -0.00084776 
Cu      7.70762503       8.47426760       8.66707471       29       0.00188055       0.00238778      -0.00078054 
Cu     11.00068288      10.81381437       9.02304877       29       0.00699854       0.00295385      -0.00356273 
Cu     10.87073469      13.29714668       9.01973052       29      -0.00345550      -0.00465218       0.00185485 
Cu     10.70754769      15.76244580       9.05603860       29       0.00086302      -0.00169218       0.00172014 
Cu     13.27217804       9.89030508       9.12689734       29      -0.00365131       0.00281995       0.00083107 
Cu     15.51972678       8.96900401       9.19635674       29       0.00185367      -0.00261057      -0.00220631 
Cu     14.41263332      13.30540519       9.28869003       29       0.00149560      -0.00067383       0.00211255 
Cu      3.53067597       8.13028543       9.49325536       29      -0.00238887       0.00235517       0.00016251 
Cu      5.97040504       4.67041081       9.54008368       29      -0.00046991       0.00383055      -0.00407767 
Cu      2.56092053      12.44187936       9.57374089       29       0.00083070       0.00358901       0.00093669 
Cu      5.88586903       7.20591543       9.72772351       29      -0.00328920      -0.00051316      -0.00121363 
Cu      9.71254660       2.31820152       9.71090496       29      -0.00182046      -0.00192441       0.00280513 
Cu      4.82561822      11.48078182       9.75017191       29      -0.00258445       0.00306077       0.00066307 
Cu      4.56683638      13.97940506       9.78103092       29      -0.00160070      -0.00077159      -0.00014295 
Cu      9.56061707       4.77887397       9.84513620       29      -0.00041169       0.00681559      -0.00481789 
Cu      7.07424332      10.52319794       9.94112529       29       0.00085403      -0.00001076      -0.00204215 
Cu     11.81742678       3.71892620       9.92983271       29      -0.00127385       0.00058598       0.00228748 
Cu      6.84297277      12.99762986       9.96205692       29       0.00048498       0.00100063       0.00229775 
Cu      6.65919496      15.46057990      10.00519275       29       0.00020397       0.00112055      -0.00175760 
Cu      9.41156560       7.22075053       9.98577117       29       0.00037587      -0.00538637       0.00134076 
Cu     11.65782656       6.21516975      10.09245850       29      -0.00156635       0.00269406       0.00228279 
Cu      9.27332469       9.58988464      10.14614654       29      -0.00641344      -0.00267350       0.00169674 
Cu      9.09952964      11.97924538      10.15784671       29      -0.00091898       0.00908538       0.00131616 
Cu     13.87871363       5.21113225      10.16028424       29       0.00354251       0.00119576       0.00507274 
Cu      8.92361409      14.44416642      10.18536439       29       0.00021408      -0.00676721       0.00367159 
Cu     11.49944797       8.66147387      10.32081318       29       0.00182522      -0.00262233      -0.00345324 
Cu     13.77186088       7.69280787      10.44275354       29       0.00258112      -0.00062802      -0.00264566 
Cu     12.59683528      12.00739899      10.44311838       29       0.00368813      -0.00540373      -0.00211941 
Cu     12.49651014      14.55832190      10.44987388       29      -0.00053348       0.00310391      -0.00184816 
Cu     14.93700530      11.13546266      10.50400093       29       0.00146740      -0.00188236      -0.00210565 
Cu      4.07756899       5.94713689      10.76886990       29       0.00019140       0.00060242       0.00135505 
Cu      2.93112758      10.26019696      10.80491301       29       0.00044224       0.00532024       0.00216683 
Cu      7.75476785       3.41891838      10.89585281       29      -0.00093665      -0.00209576      -0.00406273 
Cu      5.23477989       9.29416601      11.00432762       29      -0.00316648      -0.00034738       0.00332091 
Cu      7.61340224       5.91644942      11.04784814       29       0.00272437       0.00041711      -0.00631201 
Cu      7.50493035       8.36638838      11.25391716       29       0.00092293       0.00457216      -0.00273618 
Cu     10.67151149      13.18358144      11.59036588       29      -0.00650508       0.00302983      -0.00324218 
Cu     10.83106987      10.71867583      11.60443775       29       0.00272645       0.00109684       0.00252183 
Cu     10.50262139      15.67418831      11.61786563       29      -0.00080044      -0.00523948      -0.00480637 
Cu      3.81757807      12.51768376      11.76732291       29      -0.00051704      -0.00068070      -0.00171412 
Cu     13.18220406       9.82215424      11.76036732       29      -0.00420255       0.00551108       0.00026921 
Cu     14.17640771      13.23226092      11.82248400       29      -0.00004310      -0.00423343       0.00059271 
Cu     10.14317901       3.50808509      11.89135486       29      -0.00148745       0.00114424       0.00226084 
Cu      6.11817394      11.52583806      11.95700739       29      -0.00021308      -0.00247518       0.00274794 
Cu      3.39751123       8.06748298      12.02376591       29       0.00252613       0.00056427       0.00401687 
Cu      5.82492086       4.61870588      12.06900406       29      -0.00625674      -0.00164595      -0.00252207 
Cu      5.85394884      14.06351396      12.00484452       29       0.00059557       0.00086900      -0.00251790 
Cu      9.98351159       6.02386115      12.02735993       29      -0.00105298      -0.00423903       0.00493980 
Cu     12.24406634       4.92428808      12.12855423       29       0.00025169      -0.00113280       0.00194940 
Cu      8.37730184      10.53806250      12.17687453       29       0.00151965      -0.00152114       0.00619147 
Cu      8.16880402      12.99786788      12.17502350       29      -0.00088845       0.00026468      -0.00350033 
Cu      9.83832260       8.46210747      12.21161022       29      -0.00106068      -0.00257837       0.00045794 
Cu      7.98143500      15.48473876      12.20801806       29      -0.00111128       0.00086729      -0.00423114 
Cu      5.67721400       7.09805735      12.33640843       29      -0.00100240       0.00200568      -0.00037911 
Cu     12.13603917       7.43382103      12.40156197       29       0.00493855       0.00012914      -0.00370153 
