124
Lattice="17.5792526875 0.0 0.0 0.0 17.5792526875 0.0 0.0 0.0 17.5792526875" Properties=species:S:1:pos:R:3:Z:I:1:forces:R:3 energy=-383.374355903 pbc="F F F"
Cu      7.52972414       8.56710058      14.66159629       29       0.00187012       0.00084832      -0.00127226 
Cu      7.21734076      10.81925082      13.42779317       29      -0.00192461      -0.00070860       0.00045286 
Cu     11.14388988       8.17092766      14.89749594       29      -0.00044633       0.00064711      -0.00064058 
Cu      9.10863903      11.91987754      14.71649453       29      -0.00075583       0.00182842       0.00213132 
Cu     11.37385081      10.75771345      14.99182060       29       0.00109378      -0.00084778      -0.00157059 
Cu      6.76320159       6.59311783      13.18062364       29       0.00159355      -0.00132564       0.00172033 
Cu      5.48121296       8.88371403      13.05361585       29      -0.00182118      -0.00190967       0.00578329 
Cu      8.36694932       4.98585192      14.31571339       29      -0.00283718       0.00045177      -0.00308337 
Cu      9.56806475       9.70942541      13.66542615       29      -0.00202879       0.00026837       0.00131447 
Cu      5.19515199      11.13477746      11.73013445       29       0.00150612      -0.00135676       0.00208482 
Cu     10.82253597       5.60669255      14.67017736       29      -0.00033172      -0.00088747       0.00409959 
Cu      6.95585454      12.97824495      12.05717329       29       0.00135371      -0.00102167      -0.00072268 
Cu     13.16528809       9.32034524      13.82838021       29       0.00188289       0.00131717       0.00128734 
Cu     11.12721766      12.98907546      13.65368300       29       0.00046047      -0.00042785       0.00050525 
Cu      8.81902438      14.05445003      13.33029295       29       0.00368281      -0.00274029       0.00321377 
Cu     13.37475116      11.85077040      13.92330661       29      -0.00075331      -0.00099591      -0.00287431 
Cu      4.74359471       6.90837091      11.48489395       29       0.00182034       0.00203914       0.00105805 
Cu      7.65070467       3.13546083      12.69649734       29       0.00230382       0.00146454      -0.00018323 
Cu      7.80575483       8.67997042      12.24297481       29      -0.00044841       0.00213517       0.00389024 
Cu      3.54348130       9.18923252      11.31297209       29      -0.00070696       0.00074857      -0.00269075 
Cu     10.12057611       3.65452526      13.09832283       29       0.00246458      -0.00351173       0.00179830 
Cu      7.54469207      10.83844496      10.96015523       29       0.00152213       0.00012493       0.00298011 
Cu      9.29686868       7.15000650      13.51262634       29      -0.00337662       0.00351196      -0.00239854 
Cu      9.32759266      11.91742483      12.27013235       29       0.00088045      -0.00302709      -0.00080277 
Cu     11.61404508      10.81545355      12.54096932       29       0.00236727       0.00205220       0.00470958 
Cu      5.62071457      14.54977661      10.64456609       29      -0.00137032       0.00019204      -0.00019671 
Cu     12.88278606       6.75939802      13.66865713       29      -0.00067759       0.00083539      -0.00077884 
Cu      8.07563679      15.03290858      11.10548597       29       0.00171777      -0.00114347      -0.00366238 
Cu     14.01516678      10.64698216      11.79830053       29      -0.00046763      -0.00097260      -0.00162275 
Cu      6.07070441       4.71177020      11.57136291       29       0.00223100      -0.00452369       0.00440210 
Cu     10.45774335      14.04586644      11.40809273       29      -0.00390259      -0.00576663      -0.00002346 
Cu     12.76333418      12.89390161      11.69442491       29       0.00027803      -0.00188583       0.00367807 
Cu      5.87013173       8.98230324      10.61733308       29      -0.00229646       0.00018339      -0.00408630 
Cu      8.61165828       5.22367007      11.88068816       29       0.00035985      -0.00365025       0.00216180 
Cu      9.86090079       9.78578537      11.19815103       29      -0.00199430      -0.00084223      -0.00219832 
Cu      4.39922105      10.51359802       9.32258823       29      -0.00366760       0.00280152      -0.00419462 
Cu     11.09554732       5.75661369      12.25366964       29       0.00220588       0.00244196      -0.00045336 
Cu      6.18710941      12.40352876       9.63265255       29       0.00334989       0.00332599       0.00284676 
Cu     11.38498273       8.28772923      12.43647114       29       0.00014030      -0.00305376      -0.00077857 
Cu      9.29034983       9.08889184       2.58743208       29      -0.00009863      -0.00331084      -0.00277318 
Cu      9.55125358       6.88613646       3.81106586       29      -0.00002645      -0.00149331       0.00031549 
Cu      7.22018219       7.95380518       3.50583042       29      -0.00180593      -0.00039413       0.00028989 
Cu     11.26231752       8.78655390       4.14437582       29       0.00425914       0.00261224       0.00034948 
Cu      7.49561492      10.51879800       3.65336689       29       0.00144830      -0.00133796       0.00115481 
Cu      9.99570107      11.03017517       4.05404887       29       0.00159999      -0.00207766       0.00007252 
Cu      9.79514935       4.69380878       5.12858789       29       0.00086704       0.00090092       0.00137585 
Cu      7.46415671       5.71469521       4.74980860       29       0.00100971      -0.00054082      -0.00038133 
Cu     11.54781120       6.55669453       5.39996815       29       0.00249133      -0.00102929       0.00164217 
Cu      5.15035747       6.81767591       4.51588255       29      -0.00053363       0.00289800      -0.00067931 
Cu      8.92147361       8.98526178       5.02266865       29      -0.00249167      -0.00109915       0.00457681 
Cu     13.21947737       8.47959361       5.78989405       29      -0.00473456       0.00203579      -0.00676372 
Cu      5.38244774       9.38767471       4.59463540       29      -0.00098281       0.00008565      -0.00131134 
Cu     11.99969995      10.74689309       5.64824101       29      -0.00041604      -0.00141524      -0.00020802 
Cu      8.19026697      12.49949623       5.14659314       29       0.00117260      -0.00014012      -0.00222367 
Cu      5.69279806      11.94338829       4.80189733       29      -0.00021323       0.00171993       0.00225224 
Cu     10.68756134      12.96437039       5.60700246       29       0.00017237      -0.00137863      -0.00290697 
Cu      7.72230911       3.55329206       6.12154443       29       0.00405340      -0.00102205       0.00146557 
Cu     11.74615951       4.38942998       6.76840615       29       0.00175538      -0.00077422       0.00165353 
Cu      9.17545857       6.79279614       6.26977434       29       0.00018519      -0.00120169      -0.00249693 
Cu      5.41005032       4.61273318       5.80959672       29       0.00234755       0.00006562      -0.00135738 
Cu     13.46113293       6.27287547       7.09815104       29       0.00330832       0.00111704       0.00067358 
Cu      6.85479424       7.85417678       5.96657518       29      -0.00011764       0.00039979      -0.00167695 
Cu     10.87878061       8.68417809       6.59696867       29       0.00164033       0.00228805      -0.00151065 
Cu     15.09171180       8.17581824       7.46434286       29       0.00320352       0.00382415      -0.00007107 
Cu      7.12810086      10.40888368       6.11375812       29      -0.00093912       0.00195421       0.00014155 
Cu      9.61855295      10.91639029       6.51094881       29      -0.00064244      -0.00046101      -0.00345947 
Cu      3.34918898       8.24394270       5.65658088       29      -0.00220795      -0.00034562       0.00039178 
Cu     13.91156073      10.41544677       7.34380785       29      -0.00622168       0.00164063      -0.00113387 
Cu      3.61108000      10.80688171       5.79650686       29      -0.00080935       0.00357543       0.00193736 
Cu     12.64395268      12.65803863       7.24994089       29      -0.00037298       0.00016898       0.00095216 
Cu      6.39086392      13.88411357       6.34251464       29      -0.00125052       0.00084552      -0.00360819 
Cu      8.88450802      14.39517853       6.74964254       29       0.00076889       0.00359362      -0.00015354 
Cu     11.33898839      14.82824978       7.19136540       29      -0.00179962       0.00168803      -0.00028321 
Cu      9.40787721       4.63003882       7.58750175       29      -0.00017567      -0.00027284      -0.00075039 
Cu      7.10412516       5.66150551       7.26432530       29       0.00124931      -0.00010984       0.00163467 
Cu     11.11594597       6.48975081       7.90074079       29       0.00019637       0.00148592       0.00476892 
Cu      4.81990196       6.73485465       6.98058157       29      -0.00639071      -0.00324217      -0.00392700 
Cu      8.54294685       8.88291816       7.45409963       29      -0.00036965       0.00179875      -0.00239224 
Cu     12.76595562       8.38287777       8.25514970       29      -0.00585531       0.00180497       0.00049806 
Cu      5.05409942       9.27314180       7.11641196       29       0.00206325      -0.00070565       0.00018984 
Cu     11.56271945      10.61300016       8.14499927       29       0.00287847      -0.00300634      -0.00729773 
Cu      8.38872780       2.54634411       8.41637055       29       0.00042480      -0.00088384      -0.00090008 
Cu      5.37144044      11.78500171       7.29491916       29       0.00545293       0.00144496       0.00042910 
Cu      7.81658886      12.33650186       7.65327018       29      -0.00301739      -0.00156109      -0.00013886 
Cu     10.89968704       3.06004177       8.79220066       29       0.00223624      -0.00392007       0.00187081 
Cu     10.27266346      12.79040121       8.08100312       29       0.00237270       0.00717126       0.00133375 
Cu      6.05571850       3.51830917       8.05879027       29      -0.00163517       0.00383637      -0.00079221 
Cu     12.66382557       4.90403613       9.11936420       29       0.00146730      -0.00355171       0.00082123 
Cu      3.76972210       4.64199523       7.76139248       29       0.00206677       0.00298173       0.00100271 
Cu     14.31690211       6.84197747       9.47069775       29       0.00054325       0.00114222       0.00232269 
Cu      2.48754089       6.90394328       7.67057372       29       0.00476302       0.00104990      -0.00314257 
Cu      8.77191777       6.73079169       8.73603170       29       0.00400976      -0.00377080       0.00394769 
Cu     14.59445717       9.40735888       9.62052271       29      -0.00317173       0.00198220      -0.00170811 
Cu      6.49449513       7.77584333       8.44378721       29      -0.00035520       0.00197505       0.00461057 
Cu     10.44514482       8.58615328       9.05333771       29      -0.00161121      -0.00247038      -0.00205419 
Cu      2.68073669       9.48754855       7.78484808       29       0.00109498       0.00229273      -0.00015657 
Cu     13.39666082      11.68675033       9.51915158       29      -0.00135702       0.00364188       0.00051974 
Cu      6.76492036      10.26643603       8.59569345       29       0.00006291       0.00063728      -0.00072728 
Cu      9.20273531      10.77036804       8.97939790       29      -0.00271338       0.00115878      -0.00370309 
Cu      3.94387458      13.31769923       5.99392216       29      -0.00077418       0.00176599       0.00034540 
Cu     12.07325102      13.89983262       9.42627337       29      -0.00480185       0.00266471      -0.00409240 
Cu      7.23233971      14.54487065       8.70146434       29       0.00153941      -0.00019016      -0.00107775 
Cu      9.72147364      14.97214609       9.13749946       29       0.00269380      -0.00375105       0.00046471 
Cu      4.75546675      13.97775175       8.30160978       29       0.00128980       0.00206423      -0.00048591 
Cu      7.75080845       4.65993655       9.56711104       29      -0.00024617      -0.00043113       0.00177656 
Cu     10.26847217       5.17017184       9.92343639       29      -0.00346015       0.00045139       0.00257506 
Cu      5.47179169       5.70947193       9.24070202       29       0.00010631       0.00493931      -0.00204853 
Cu     11.96650945       7.05651004      10.26298608       29      -0.00220165       0.00285838      -0.00404830 
Cu      4.12934577       7.95406418       9.17147205       29       0.00223597       0.00069086       0.00068928 
Cu     12.24168949       9.61304701      10.41271059       29       0.00386261      -0.00750026      -0.00336049 
Cu      8.15588086       8.77911510       9.85229824       29      -0.00073679      -0.00503432      -0.00098606 
Cu      3.01775355      12.05665224       7.96712186       29       0.00325342      -0.00171665       0.00664326 
Cu     10.98923399      11.84481223      10.31703014       29      -0.00568698      -0.00273805       0.00466224 
Cu      6.74796095       2.59271248      10.37943449       29      -0.00073177       0.00195083      -0.00144136 
Cu      9.27364995       3.02031285      10.76556846       29       0.00048705      -0.00219994      -0.00095551 
Cu      8.63286641      12.90966015      10.05015341       29      -0.00229170      -0.00012368       0.00511583 
Cu      3.84522639      12.73793645      10.29641138       29      -0.00247417      -0.00214294      -0.00378838 
Cu     11.75705814       3.62480750      11.14046988       29      -0.00248352      -0.00353775       0.00278893 
Cu      4.45357597       3.62760757      10.00335833       29      -0.00238215       0.00094388       0.00453871 
Cu     13.45247679       5.52195080      11.49447736       29       0.00355363       0.00019172      -0.00021376 
Cu      3.10573225       5.80207719       9.89501780       29      -0.00192083       0.00001884      -0.00307260 
Cu     13.80497562       8.07377412      11.67316044       29      -0.00249301       0.00163222       0.00050977 
Cu      7.11153652       6.78902455      10.72274679       29      -0.00038330       0.00201027      -0.00084839 
Cu      9.60128220       7.29313656      11.05480678       29      -0.00007955      -0.00373686      -0.00207940 
