147
Lattice="18.1043113648 0.0 0.0 0.0 18.1043113648 0.0 0.0 0.0 18.1043113648" Properties=species:S:1:pos:R:3:Z:I:1:forces:R:3 energy=-459.702353565 pbc="F F F"
Cu      8.85299537      10.88647552      15.75038978       29       0.00153449       0.00028030      -0.00016722 
Cu      6.96320932      11.59202896      14.20843614       29       0.00073329      -0.00026295      -0.00158827 
Cu      9.30799843      12.66574510      13.99532414       29      -0.00058718       0.00084100       0.00001639 
Cu      7.27746253       9.10478526      14.86490792       29       0.00193527       0.00050821      -0.00065542 
Cu     11.07384135      10.84261727      14.52219026       29       0.00016158      -0.00009898      -0.00062302 
Cu      9.81859612       8.64131179      15.05535639       29       0.00106141      -0.00045022      -0.00135981 
Cu      8.92229939      10.27001370      13.37779821       29       0.00148080      -0.00041477      -0.00053861 
Cu      7.40016863      13.40294934      12.40440150       29       0.00042617       0.00013809      -0.00137781 
Cu      5.34297335       9.79535069      13.28687660       29      -0.00004139       0.00057894       0.00002405 
Cu     11.56296787      12.64535251      12.72784421       29      -0.00185221      -0.00050171       0.00036114 
Cu      5.07826633      12.27237970      12.57014598       29       0.00056943       0.00058703      -0.00180583 
Cu      9.76343276      14.42039017      12.14401823       29       0.00143410       0.00008709      -0.00089367 
Cu      8.23625242       6.80578604      14.14570929       29       0.00014168      -0.00005028      -0.00048511 
Cu     12.08217956       8.56648550      13.79836118       29      -0.00045344      -0.00048087      -0.00105939 
Cu      5.70565933       7.29968521      13.88420720       29       0.00182916       0.00060748      -0.00075794 
Cu     13.29575856      10.77519142      13.20056442       29      -0.00125739      -0.00110750       0.00139019 
Cu     10.78924193       6.37267022      14.26283701       29      -0.00004215       0.00012775      -0.00091187 
Cu      7.04065724      10.96595023      11.81544288       29       0.00044279       0.00001220      -0.00104658 
Cu      9.37786385      12.03642632      11.60243752       29      -0.00080734      -0.00060688       0.00020541 
Cu      7.35363696       8.48758224      12.46987866       29      -0.00032528       0.00068289      -0.00014994 
Cu     11.13721934      10.21977578      12.12725488       29      -0.00046069      -0.00041498      -0.00009487 
Cu      9.88620037       8.02568670      12.65863254       29      -0.00036219      -0.00063487      -0.00076531 
Cu      5.53927980      14.02668627      10.71569776       29       0.00039566      -0.00064179      -0.00106210 
Cu      7.88177259      15.09911629      10.50022658       29       0.00073567       0.00044644       0.00013817 
Cu      3.27193025      12.90138497      10.90056254       29      -0.00052786       0.00106781      -0.00080782 
Cu      3.50591650      10.46653760      11.58722432       29      -0.00049144      -0.00040732       0.00097134 
Cu     11.98525599      14.35569373      10.82801098       29       0.00146158      -0.00017684       0.00036045 
Cu     10.20894510      16.07856806      10.26724241       29       0.00135446      -0.00049479       0.00138058 
Cu      3.81807484       7.98108661      12.24549595       29       0.00076516      -0.00066692      -0.00091503 
Cu     13.75233553      12.53354002      11.35803219       29      -0.00137239      -0.00095249       0.00161600 
Cu      6.67378859       5.02979092      13.09229569       29       0.00109361       0.00006652      -0.00005980 
Cu     14.26465769       8.50486059      12.41077598       29      -0.00044955      -0.00017491      -0.00020068 
Cu      4.19738945       5.54203727      12.84662454       29       0.00081629      -0.00057058      -0.00132561 
Cu     15.43332857      10.68612611      11.83937143       29      -0.00113044       0.00061492       0.00183752 
Cu      9.21630733       4.56676912      13.28151523       29       0.00135237      -0.00021005       0.00031865 
Cu     13.01493279       6.30411008      12.93598720       29       0.00062771       0.00078376       0.00009165 
Cu     11.72328708       4.17086982      13.40631534       29       0.00171006       0.00039983      -0.00028519 
Cu      8.99250569       9.65655863      11.01893713       29      -0.00027438      -0.00053292      -0.00067636 
Cu      7.49975465      12.71361378       9.96810258       29      -0.00092280       0.00074844      -0.00004788 
Cu      5.21846421      11.60684389      10.16020072       29      -0.00071786      -0.00009795      -0.00022028 
Cu      9.82547982      13.71469652       9.74042713       29       0.00015351      -0.00030352       0.00058346 
Cu      5.47306850       9.16550558      10.83675829       29      -0.00035085      -0.00060061       0.00025812 
Cu     11.59417205      11.96873546      10.28599153       29      -0.00019763       0.00047012      -0.00056737 
Cu      8.31916027       6.22526807      11.68127062       29      -0.00009883       0.00046688      -0.00105490 
Cu     12.10363164       7.95740379      11.33791419       29       0.00055079      -0.00036589      -0.00074986 
Cu      5.83235652       6.72233452      11.45137783       29       0.00034863       0.00006651      -0.00040782 
Cu     13.29081095      10.13753601      10.77744260       29      -0.00038033      -0.00066605       0.00035366 
Cu     10.82758011       5.81238889      11.82170069       29       0.00061638      -0.00027495       0.00008469 
Cu      6.56629381      14.44450848       8.36911837       29       0.00001506       0.00071726       0.00070431 
Cu      4.25266628      13.30232022       8.58996346       29      -0.00041277      -0.00001107       0.00041265 
Cu      8.94287330      15.44550757       8.15720288       29       0.00153519      -0.00113899       0.00064342 
Cu      2.99042182      11.10572156       9.13080203       29      -0.00060564      -0.00071489       0.00012768 
Cu     11.47551389      14.98997735       8.35395975       29       0.00114017      -0.00067555       0.00160385 
Cu      3.22592938       8.61194632       9.80307133       29       0.00006652      -0.00077456       0.00069310 
Cu     13.28729518      13.23993091       8.90810718       29       0.00031926      -0.00078536       0.00048330 
Cu      7.15402062      10.31957012       9.42473572       29      -0.00086659      -0.00015393      -0.00062714 
Cu      9.44083157      11.36527056       9.21511098       29      -0.00094845      -0.00028853       0.00066683 
Cu      3.61379342       6.13108629      10.44681125       29       0.00134205      -0.00267254      -0.00058505 
Cu     15.00738269      11.35961447       9.43345561       29       0.00034308      -0.00111699       0.00074514 
Cu      7.45941822       7.89497952      10.06522498       29      -0.00057853       0.00000683      -0.00011805 
Cu     11.16018337       9.59151792       9.72697098       29      -0.00007173      -0.00003563      -0.00097093 
Cu      5.37936291       4.30822520      10.96779277       29       0.00193107      -0.00123984       0.00058344 
Cu     15.32440357       8.85347529      10.08412429       29      -0.00050334       0.00030374       0.00081254 
Cu      9.93704822       7.44406130      10.24743792       29      -0.00001401      -0.00023094      -0.00030569 
Cu      7.90731421       3.77396928      11.19168502       29       0.00010435      -0.00008428       0.00032347 
Cu     14.13978703       6.62547156      10.61915218       29      -0.00015483       0.00040343      -0.00023439 
Cu     10.46746495       3.37979974      11.34936175       29       0.00005332      -0.00023392       0.00068802 
Cu     12.81756839       4.45912022      11.12823845       29       0.00047594       0.00097146      -0.00035387 
Cu      6.21684406      11.99112357       7.84978846       29      -0.00049009      -0.00064163       0.00114383 
Cu      8.55639382      13.05947436       7.63542203       29      -0.00032103      -0.00032233       0.00020357 
Cu      4.95821380       9.80207965       8.39093704       29       0.00012848      -0.00016570      -0.00092163 
Cu     11.08721117      12.60248069       7.83069301       29      -0.00042444      -0.00080987       0.00104906 
Cu      5.26918197       7.31987014       9.04616903       29      -0.00046437       0.00032191       0.00020094 
Cu      9.05979273       9.05030398       8.69506946       29      -0.00011283      -0.00013857       0.00018715 
Cu     12.84752595      10.79406797       8.35560237       29       0.00064047      -0.00015950       0.00045502 
Cu      7.02935800       5.50469364       9.56441753       29       0.00076266      -0.00016623       0.00021089 
Cu     13.15275015       8.30798477       9.01169081       29       0.00015700       0.00069462       0.00043832 
Cu      9.56505722       5.04190254       9.75520448       29      -0.00102439      -0.00077493       0.00107425 
Cu     11.90775459       6.11536362       9.53186298       29      -0.00163480       0.00143484       0.00017913 
Cu      5.31312432      13.64862446       6.24878639       29       0.00008118      -0.00041661       0.00041704 
Cu      7.66233721      14.71691793       6.03042610       29      -0.00057975       0.00010943       0.00057674 
Cu      3.98364872      11.48597842       6.76691117       29      -0.00053826      -0.00101417       0.00035136 
Cu     10.21322212      14.32117139       6.18443704       29       0.00010020      -0.00085874       0.00092967 
Cu      8.18424192      10.65622863       7.14425287       29      -0.00019435      -0.00069229      -0.00031033 
Cu      2.78614226       9.25820078       7.33384801       29      -0.00083114      -0.00347818       0.00141504 
Cu     12.72377542      13.80654413       6.41393958       29      -0.00098378      -0.00130979       0.00084811 
Cu      6.95360498       8.51462418       7.67899401       29       0.00045652      -0.00125645      -0.00073743 
Cu     10.66150407      10.20891626       7.33389821       29      -0.00039686       0.00046929      -0.00015294 
Cu      3.09857169       6.76656682       7.99050957       29       0.00104428      -0.00101778      -0.00067438 
Cu     14.49573860      12.05408910       7.00502671       29       0.00044479       0.00029668       0.00097745 
Cu      8.67557031       6.73725887       8.17716815       29       0.00022478      -0.00066448       0.00125495 
Cu     10.96486713       7.78558104       7.96733094       29      -0.00044536      -0.00011317      -0.00029663 
Cu      4.80575249       4.88753219       8.50917791       29       0.00176317      -0.00031678      -0.00078249 
Cu     14.90117084       9.50524440       7.64481106       29       0.00122201      -0.00014720       0.00059064 
Cu      6.62646317       3.12127644       9.03517050       29      -0.00050459       0.00069631      -0.00147439 
Cu     15.12142708       7.03002092       8.22971312       29      -0.00134260      -0.00031846      -0.00059492 
Cu      9.17289670       2.65545545       9.23058507       29      -0.00157119      -0.00011458      -0.00012206 
Cu     13.87456093       4.82718639       8.77653603       29      -0.00232180       0.00034841       0.00021024 
Cu     11.56075650       3.65695093       9.01858700       29      -0.00196062       0.00067060       0.00127867 
Cu      7.29886069      12.28583093       5.56330288       29      -0.00016817      -0.00051167       0.00146324 
Cu      4.81576224       7.97448327       6.63235693       29       0.00014911      -0.00084494      -0.00035984 
Cu      6.01416540      10.14487307       6.06227758       29      -0.00025349      -0.00038375      -0.00064450 
Cu     12.28449430      11.38693376       5.94436980       29      -0.00079929      -0.00019335       0.00144184 
Cu      9.80006576      11.87491065       5.71142702       29      -0.00026962       0.00064132       0.00013902 
Cu      6.51143865       6.13356935       7.11834582       29       0.00227094      -0.00436378      -0.00670568 
Cu     12.64869541       8.94386035       6.56049540       29       0.00075995      -0.00051095       0.00073548 
Cu      8.28573333       4.38658335       7.65538856       29      -0.00034372       0.00028474      -0.00058514 
Cu     12.90634585       6.52248451       7.20116754       29      -0.00152798      -0.00077990      -0.00118751 
Cu     10.61648450       5.38283721       7.43223664       29      -0.00011948       0.00026369      -0.00008285 
Cu      8.71524098       6.05621403       5.79652620       29      -0.00060538       0.00080135       0.00062504 
Cu      6.41178013      13.92405434       3.97117861       29      -0.00115813      -0.00009549      -0.00085712 
Cu      5.11240908      11.79700592       4.45224854       29      -0.00024388      -0.00010598      -0.00099269 
Cu      8.91808525      13.51937961       4.09510797       29      -0.00101005       0.00088759       0.00061782 
Cu      2.67098279       7.42973342       5.57673448       29       0.00108114      -0.00203895      -0.00041429 
Cu     13.93497834      12.55129359       4.54665026       29      -0.00038096       0.00203146       0.00209566 
Cu      3.84562813       9.60651053       4.99626030       29      -0.00088643      -0.00146390       0.00226366 
Cu     11.46239902      13.02651889       4.27527234       29       0.00028440       0.00224147       0.00204226 
Cu      4.35209105       5.58395336       6.05075863       29       0.00007952      -0.00057666      -0.00196762 
Cu     12.53185252      10.68305744       3.52039198       29       0.02007264       0.02253428       0.07910894 
Cu      7.89094181       2.02574331       7.12867892       29      -0.00131785       0.00048898      -0.00090295 
Cu      6.11406272       3.76053163       6.57108526       29      -0.00024980       0.00078190      -0.00232455 
Cu     14.85115220       5.25076061       6.45406549       29      -0.00158200      -0.00177989       0.00009051 
Cu     14.61409857       7.69618855       5.69885941       29       0.01657913      -0.04765117       0.01346219 
Cu     10.22703515       2.99798820       6.89635798       29      -0.00037386      -0.00023672       0.00013321 
Cu     12.58106810       4.08962398       6.67491205       29      -0.00051631      -0.00202030       0.00123825 
Cu      8.30229368       9.45967073       2.35392159       29       0.00802273       0.00721240       0.00055681 
Cu      6.96745925       7.86842635       5.30019981       29       0.04073057       0.07677509      -0.15792431 
Cu     10.75362936       9.61769258       4.93263572       29      -0.00041897       0.00150531       0.00077618 
Cu     11.03128118       7.09133374       5.59336217       29      -0.01518795       0.01633724       0.02936551 
Cu      7.34590716      11.71881233       3.12499650       29       0.00239705       0.00194911       0.00138048 
Cu      7.03014928       7.27983539       2.89924898       29       0.00024406       0.00189006      -0.00149384 
Cu     10.84580901       8.97690971       2.54319392       29       0.00036961       0.00302303      -0.00048039 
Cu      9.18823228       7.81681694       3.98647083       29      -0.00024809       0.00117148      -0.00050563 
Cu      8.77491057       5.43249831       3.42237212       29       0.01617577      -0.01446664      -0.02992919 
Cu     12.65946346       8.22182643       4.15554464       29      -0.00051999       0.00149725       0.00061262 
Cu     11.10897380       6.46015134       3.19323217       29      -0.00007539       0.00033568       0.00218656 
Cu     10.69129921       4.66779804       4.99540200       29      -0.00152385       0.00082015       0.00062063 
Cu     13.01985417       5.80231890       4.80494834       29      -0.00009788       0.00020721      -0.00037832 
Cu      4.80670817       7.34183138       4.20739364       29      -0.00023633       0.00096184      -0.00162041 
Cu      8.23109175      10.06726082       4.73724402       29      -0.00063685      -0.00080903      -0.00086626 
Cu     14.66659032       9.07461344       3.23432170       29      -0.01495906       0.04816182      -0.00976731 
Cu      6.53202524       5.47088444       4.63988365       29      -0.04047051      -0.07466105       0.15657477 
Cu      9.91402247      11.27090491       3.24717844       29       0.00077343       0.00146041      -0.00299110 
Cu      6.03507971       9.53560056       3.61089098       29       0.00046308       0.00130038      -0.00124997 
Cu      9.12007650       8.44116105       6.36813596       29      -0.00721578      -0.00729424      -0.00323276 
Cu      8.32470925       3.67489973       5.25102981       29      -0.00411047       0.00573767       0.00564532 
Cu     14.36661400      10.20804080       5.31521728       29      -0.01762736      -0.02032555      -0.07625935 
