147
Lattice="18.378788495 0.0 0.0 0.0 18.378788495 0.0 0.0 0.0 18.378788495" Properties=species:S:1:pos:R:3:Z:I:1:forces:R:3 energy=-459.404732698 pbc="F F F"
Cu      9.34780287       8.59270908      15.55973675       29       0.00067960      -0.00066001      -0.00002774 
Cu     11.23887085      10.31265773      15.17206934       29       0.00002645      -0.00025060      -0.00053227 
Cu      6.88098582       9.27519586      15.15585734       29       0.00060009       0.00054852       0.00015393 
Cu      8.76759983      11.01513202      14.84300842       29      -0.00014896       0.00068144      -0.00046260 
Cu      9.64692480       6.11104362      14.80653312       29      -0.00025630      -0.00103157       0.00080040 
Cu     13.08775362      11.98437113      14.68651998       29      -0.00095961      -0.00008812      -0.00037067 
Cu     11.56445203       7.84530973      14.48381057       29      -0.00031911      -0.00024749       0.00135596 
Cu      6.30883468      11.66680400      14.36281061       29       0.00030779       0.00031008      -0.00021920 
Cu     10.67329632      12.70272449      14.35755067       29       0.00048637       0.00018439      -0.00049125 
Cu      8.85680495       2.26607359      13.01003887       29       0.00105241      -0.00006585       0.00018495 
Cu      5.64355903       7.23673989      14.14414501       29      -0.00080970       0.00029544       0.00004927 
Cu      8.20801368      13.38252643      13.95518818       29       0.00019187      -0.00061676      -0.00004127 
Cu     13.43171350       9.56451478      14.00001093       29      -0.00011481      -0.00052545      -0.00022953 
Cu     11.05827272       3.06589544      13.84354555       29      -0.00007431       0.00092134       0.00234251 
Cu      7.34464451       5.26789557      13.92734985       29      -0.00062559       0.00010975      -0.00030504 
Cu      8.04099014       7.65075820      13.67772922       29       0.00060587      -0.00010765      -0.00008649 
Cu     11.81938413       5.41494040      13.66293010       29       0.00082544       0.00122475       0.00059451 
Cu      5.78853261      13.99650476      13.49267787       29       0.00014195      -0.00046895      -0.00021911 
Cu      5.01177098       9.64110831      13.40754961       29       0.00029946      -0.00027522      -0.00022372 
Cu      9.91745264       9.37430673      13.30044739       29      -0.00112033      -0.00145674      -0.00033707 
Cu     13.71829916       7.10202825      13.23494193       29      -0.00003221       0.00052049      -0.00071297 
Cu      7.46439738      10.04029604      12.89765005       29      -0.00036153      -0.00015634       0.00094194 
Cu     11.77729635      11.04532343      12.83902611       29       0.00116882       0.00079494       0.00011179 
Cu     12.51076226      13.43453959      12.68435104       29      -0.00012185      -0.00137051      -0.00047163 
Cu      9.50705269       4.59564218      12.76641010       29      -0.00089169       0.00161635      -0.00028819 
Cu      4.50291981      12.02646848      12.53873308       29      -0.00097867       0.00050839       0.00068822 
Cu      9.35640175      11.75205225      12.49045295       29      -0.00002661       0.00094767      -0.00090421 
Cu     10.21497770       6.95396810      12.54252930       29       0.00027227      -0.00110554      -0.00100982 
Cu     14.21265770      11.49292142      12.46234728       29      -0.00117943      -0.00089604       0.00074313 
Cu     10.05583361      14.18025491      12.32194353       29       0.00041929      -0.00001764       0.00062748 
Cu     13.89723852       4.67291656      12.45070091       29       0.00002733      -0.00020448       0.00011539 
Cu      3.82710002       7.60063658      12.34019135       29       0.00084381       0.00098676      -0.00058609 
Cu      5.46559840       5.61462592      12.15415708       29      -0.00049019      -0.00093155       0.00098430 
Cu     12.10817628       8.62575955      12.13274103       29       0.00093958      -0.00012605      -0.00036029 
Cu      6.93295526      12.38069349      12.04649319       29      -0.00070253       0.00092943      -0.00009860 
Cu      7.57866796      14.79415765      11.87726605       29       0.00017632       0.00104186      -0.00053004 
Cu      7.19951927       3.72757986      11.89888601       29       0.00000746      -0.00093135      -0.00105427 
Cu      6.22504124       8.02357844      11.88958072       29      -0.00055167      -0.00102253       0.00001576 
Cu     14.57406956       9.03028467      11.73437695       29      -0.00092974      -0.00022986       0.00030761 
Cu      7.89414879       6.10523052      11.65607675       29       0.00064717      -0.00153241       0.00064578 
Cu     11.69867801       3.78565753      11.57849949       29      -0.00045470      -0.00125197       0.00015250 
Cu      3.26447601       9.99161610      11.52569919       29       0.00065122      -0.00013117       0.00042229 
Cu      8.61681142       8.44725947      11.40828613       29       0.00055636      -0.00063831      -0.00103232 
Cu     12.33139852       6.20802734      11.34466185       29      -0.00010379       0.00111739       0.00081739 
Cu      5.66407219      10.40127184      11.07919503       29      -0.00114648      -0.00149597      -0.00145549 
Cu      5.28969578      13.95618537      11.00230446       29       0.00028651       0.00092922      -0.00000693 
Cu     10.47401497      10.11167556      11.00182368       29      -0.00009064       0.00008282      -0.00001189 
Cu     14.77548718       6.56168983      10.94729808       29       0.00053772      -0.00123821      -0.00011284 
Cu     11.18800589      12.47964764      10.82305906       29      -0.00041553      -0.00009308       0.00028349 
Cu      9.44661935       2.96159284      10.72169071       29      -0.00177597      -0.00061846      -0.00001483 
Cu     11.88140328      14.84543862      10.60853875       29      -0.00027520       0.00057199      -0.00061750 
Cu      8.07008949      10.77597533      10.60777952       29       0.00047448      -0.00040791      -0.00070956 
Cu     12.88421215      10.54522901      10.60201772       29      -0.00041171      -0.00041450      -0.00012570 
Cu      2.12084902       7.97076413      10.49601965       29       0.00005611       0.00037148       0.00053048 
Cu      8.72963784      13.15853224      10.42015657       29       0.00090258       0.00055670      -0.00006568 
Cu     13.64126626      12.95454293      10.40310434       29      -0.00018619      -0.00007726       0.00050242 
Cu     10.10794614       5.34477726      10.47642537       29      -0.00062459       0.00101148       0.00005900 
Cu      9.41473296      15.52663287      10.20459034       29       0.00109886      -0.00034027      -0.00084590 
Cu      3.72099910       6.01071255      10.29041761       29       0.00007622      -0.00010465      -0.00105278 
Cu     10.75483483       7.72039812      10.25569828       29      -0.00130847      -0.00025015       0.00109431 
Cu     15.28410761      10.96335304      10.16634982       29      -0.00028241      -0.00145737      -0.00054749 
Cu      4.49813224       8.38122924      10.05756286       29       0.00150709       0.00116038      -0.00004513 
Cu      5.42410782       4.06727275      10.06609198       29       0.00029618      -0.00013080      -0.00064358 
Cu      3.98161769      11.95717583      10.00009436       29       0.00090583       0.00058344       0.00115009 
Cu     13.54530751       4.53484666       9.92715140       29      -0.00017958      -0.00064981      -0.00044232 
Cu      7.18192618       2.21576846       9.88657570       29      -0.00067807       0.00025003      -0.00015063 
Cu      6.11746687       6.43343859       9.84419452       29      -0.00141817       0.00100527      -0.00064899 
Cu     13.17015859       8.09150668       9.84520303       29      -0.00044959       0.00029909      -0.00087128 
Cu      6.86233501       8.79009552       9.62184166       29      -0.00113324      -0.00047835      -0.00000690 
Cu      7.84489422       4.56674040       9.63113323       29      -0.00022207      -0.00288627       0.00102209 
Cu      6.44790180      12.32351099       9.54810280       29       0.00053607       0.00071556       0.00060493 
Cu      7.09839497      14.76233786       9.33143066       29       0.00001447      -0.00007145       0.00058302 
Cu      8.51718706       6.90177990       9.40094332       29       0.00047397       0.00190573       0.00099474 
Cu     15.56931853       8.50006110       9.40695008       29       0.00013407      -0.00028535       0.00009525 
Cu      9.19030919       9.19460701       9.19088588       29      -0.00062298      -0.00053480       0.00186266 
Cu      2.81182912       9.88403036       8.97711278       29       0.00034615       0.00074494       0.00015744 
Cu      9.86080283      11.48808997       8.97676700       29      -0.00024813      -0.00090848       0.00041002 
Cu     11.28923144       3.62487609       9.03045533       29      -0.00013744      -0.00013678       0.00021460 
Cu     10.54059992      13.81837479       8.75954037       29       0.00062658       0.00033308       0.00008897 
Cu     11.93875944       6.06580096       8.82957388       29      -0.00056278       0.00003382       0.00023360 
Cu     11.51830270       9.59712108       8.76091831       29       0.00009515       0.00110705       0.00043374 
Cu     11.22446664      16.16302003       8.54004881       29       0.00020041      -0.00032988       0.00006213 
Cu      5.21324853      10.29317771       8.53952626       29      -0.00039680      -0.00082842       0.00077934 
Cu     12.25625311      11.95305409       8.53329958       29       0.00003010      -0.00040060       0.00001946 
Cu      4.83717635      13.85109792       8.45456819       29       0.00047743       0.00042261      -0.00002870 
Cu     12.95381739      14.31720735       8.31111638       29      -0.00036642      -0.00056692      -0.00023017 
Cu     14.40268713       6.42961637       8.38195606       29      -0.00029325       0.00036372       0.00017997 
Cu     13.88144203      10.00452197       8.32631707       29      -0.00084395       0.00096648       0.00056767 
Cu      3.09694410       7.42429694       8.21537611       29       0.00121744       0.00007171      -0.00049208 
Cu      8.96486470       2.85906341       8.17887266       29       0.00051053      -0.00005626      -0.00034158 
Cu      7.62931800      10.67170525       8.12430667       29       0.00157802      -0.00026196      -0.00092573 
Cu     14.65415212      12.37546820       8.09023522       29      -0.00105175       0.00020037       0.00004134 
Cu      4.73657260       5.43031804       7.97610132       29      -0.00048192       0.00017940      -0.00043028 
Cu      8.27880390      13.05247003       7.88179464       29       0.00005619      -0.00000094      -0.00007640 
Cu      9.64821089       5.22829008       7.95479339       29      -0.00013562      -0.00133248       0.00016962 
Cu     16.25793947      10.41622452       7.88697089       29       0.00061263      -0.00002312       0.00010677 
Cu      5.49690625       7.84205770       7.77929610       29       0.00069806      -0.00001643       0.00177617 
Cu      6.50479397       3.53504605       7.78817570       29       0.00003337       0.00030235      -0.00085728 
Cu     10.31071343       7.61195968       7.77466164       29      -0.00103138      -0.00160448      -0.00055836 
Cu      8.96284007      15.42019328       7.65704851       29      -0.00067965       0.00097158       0.00037129 
Cu      7.19052160       5.90409511       7.56123689       29       0.00098024       0.00132924      -0.00047757 
Cu      3.59850041      11.81385228       7.44205583       29       0.00057396       0.00031970       0.00009544 
Cu      7.90677470       8.27625801       7.38112307       29       0.00005022      -0.00116982       0.00067210 
Cu     13.09637794       4.43115671       7.37392805       29      -0.00054731      -0.00056865       0.00117983 
Cu     12.71704965       7.98752639       7.30401067       29      -0.00022395       0.00138033      -0.00019370 
Cu      6.04439261      12.17315153       7.04071791       29      -0.00059554      -0.00060966      -0.00022720 
Cu      9.76212256       9.94624527       6.97480065       29      -0.00033915       0.00088727      -0.00047333 
Cu      6.67455286      14.58294779       6.78219484       29      -0.00075438       0.00025011       0.00052796 
Cu     15.11646097       8.39621933       6.85737754       29       0.00056676      -0.00005905      -0.00133809 
Cu     10.45732828      12.30393634       6.71502407       29      -0.00023573       0.00109851      -0.00020129 
Cu      3.81238097       9.35705571       6.64675759       29      -0.00015855       0.00103542       0.00044506 
Cu     11.14928396      14.67028857       6.48696947       29      -0.00010448       0.00041499      -0.00144708 
Cu     12.14968180      10.37205375       6.49503806       29      -0.00083288       0.00047168      -0.00033861 
Cu     10.79886924       3.59124164       6.49628095       29      -0.00043011      -0.00029968       0.00117168 
Cu     11.44752626       6.00423954       6.33591709       29       0.00008094       0.00924353      -0.00215300 
Cu      6.28077717       9.76673760       6.24988290       29      -0.00012577       0.00159562      -0.00063156 
Cu     12.89930815      12.77830174       6.22926443       29      -0.00004703       0.00102834       0.00047510 
Cu     14.54838404      10.78928613       6.04570880       29       0.00013860       0.00070114      -0.00128306 
Cu      8.32000176       4.20516626       6.05944206       29       0.00375106       0.00081312      -0.00393711 
Cu      4.45035092      13.68398300       5.95017069       29      -0.00037105      -0.00028382       0.00035726 
Cu      4.16800811       6.89513068       5.91879206       29       0.00016173       0.00044792      -0.00003032 
Cu      8.17831008      11.47068001       5.84426516       29       0.00015096      -0.00187363      -0.00008778 
Cu      9.02157663       6.63645330       5.89284110       29       0.00054718       0.00077349      -0.00167346 
Cu     13.87740900       6.36201396       5.84310165       29      -0.00024833      -0.00071124      -0.00073734 
Cu      5.86922765       4.95155246       5.70057685       29       0.00108174      -0.00133065       0.00028619 
Cu      8.85520608      13.89692806       5.56658409       29      -0.00005572      -0.00001618      -0.00005223 
Cu      6.60362158       7.34238755       5.54543693       29       0.00181671      -0.00062870       0.00032265 
Cu     10.91608679       8.34436914       5.48723889       29       0.00072923       0.00064629       0.00079937 
Cu     11.50447297       9.10350116       3.22264178       29      -0.00093527       0.00088518      -0.00044792 
Cu      9.03632301       9.78553964       2.81905175       29      -0.00042357       0.00035353      -0.00001679 
Cu      7.14163960       8.08069712       3.21539793       29      -0.00053793       0.00042471      -0.00085838 
Cu     10.34707405      10.71709777       4.70698043       29      -0.00102419      -0.00076630       0.00021918 
Cu      9.61073849       7.37397635       3.54381656       29       0.00052121       0.00007386      -0.00081687 
Cu     12.07117806       6.71957873       4.01957979       29       0.00190519      -0.00191335       0.00088805 
Cu      8.75154027      12.24569512       3.58164469       29       0.00038514       0.00036429      -0.00017594 
Cu      6.82306186      10.55620575       3.90734241       29      -0.00019189      -0.00128589       0.00019892 
Cu     11.04307555      13.08362543       4.45708772       29      -0.00050734       0.00127356       0.00082251 
Cu      4.95477256       8.82688923       4.38391187       29      -0.00082190      -0.00013942      -0.00100069 
Cu      8.46169135       9.02354642       5.08580758       29      -0.00145164       0.00038407       0.00024942 
Cu     12.74457052      11.14147443       4.23609597       29       0.00034874       0.00030536      -0.00007423 
Cu      5.29381390       6.40519485       3.69708059       29       0.00000973      -0.00051566       0.00016863 
Cu     13.36639573       8.74672850       4.97894295       29       0.00187487      -0.00019787       0.00054249 
Cu      6.57259132      12.99601418       4.73725888       29      -0.00058773       0.00116764       0.00006038 
Cu      4.66943902      11.28573899       5.14449235       29       0.00034013       0.00028477       0.00108651 
Cu      7.70587756       5.68608498       4.02443802       29      -0.00380188      -0.00160550       0.00293311 
Cu     12.59090409       4.39107538       4.88605037       29       0.00067700       0.00061261      -0.00068503 
Cu     10.16956829       5.00840788       4.42594467       29       0.00265615      -0.00812894       0.00231736 
