147
Lattice="17.8645699933 0.0 0.0 0.0 17.8645699933 0.0 0.0 0.0 17.8645699933" Properties=species:S:1:pos:R:3:Z:I:1:forces:R:3 energy=-459.404637534 pbc="F F F"
Cu      7.94317080       7.63630672      15.02568390       29       0.00007377      -0.00023002       0.00003961 
Cu      6.67115260       9.83131156      14.75176396       29      -0.00046442       0.00015242      -0.00075210 
Cu      9.24380662       9.86870922      14.68439682       29       0.00082806      -0.00156712       0.00026689 
Cu     11.31194874       5.49885726      13.65566176       29      -0.00017636       0.00024047       0.00119880 
Cu      4.63450726       8.61723768      15.45404640       29      -0.00264138       0.00083863       0.00014767 
Cu     10.47026357      12.07968287      14.17994027       29       0.00058964       0.00022050      -0.00100401 
Cu     10.54984279       7.65838876      14.86774256       29       0.00049582       0.00200380       0.00232883 
Cu      5.33566420      11.93698711      14.40238825       29       0.00261280       0.00113922       0.00540771 
Cu      9.10599540      11.02348152      12.42874635       29      -0.00553399      -0.00440467      -0.00173597 
Cu     12.62335624       7.69917871      13.31379421       29       0.00024841       0.00228483      -0.00006679 
Cu      7.89238344      12.05728182      14.32329836       29      -0.00799336       0.00482334      -0.00028166 
Cu      7.10192356       5.44787666      13.88819632       29      -0.00010610       0.00025615       0.00096760 
Cu      3.82486395       6.53401403      14.36604507       29      -0.00114974      -0.00235529      -0.00033326 
Cu      4.44552208       9.83538043      13.31950051       29      -0.00008028       0.00133311      -0.00169821 
Cu     11.80868541       9.86823498      14.45906197       29      -0.00076332      -0.00126286      -0.00441045 
Cu      9.16270286       6.61552068      13.10281779       29      -0.00021842      -0.00226442       0.00126556 
Cu      6.48188853      13.44400823      12.66704442       29       0.00037665      -0.00018714      -0.00114796 
Cu      8.55952924      12.39841528       2.41052360       29      -0.00012436       0.00043277      -0.00072937 
Cu      9.88909135      10.24429889       2.60358689       29       0.00033632      -0.00050218       0.00170553 
Cu     11.22331564       8.04385309       2.88454611       29      -0.00080305       0.00201884      -0.00001543 
Cu      7.30315158      10.21611548       2.73927930       29      -0.00016374      -0.00016280       0.00076917 
Cu      8.63404161       8.00320738       2.94298719       29      -0.00033965       0.00048954      -0.00017355 
Cu     12.51026996       5.88457645       3.24107800       29       0.00053253      -0.00006132      -0.00127420 
Cu      9.97224544       5.81410899       3.30090641       29      -0.00035557       0.00212262       0.00030794 
Cu      6.05190980       7.98793696       3.15657273       29       0.00023496       0.00108108      -0.00104167 
Cu      7.38642265       5.78697135       3.43716563       29       0.00020386       0.00039968       0.00003426 
Cu      4.85464341       5.80196722       3.64397260       29      -0.00043646      -0.00063046      -0.00038043 
Cu     10.72660606      12.42034470       3.73334470       29      -0.00050495      -0.00045796      -0.00011808 
Cu     12.10205950      10.23651913       3.94945767       29       0.00105154      -0.00012509       0.00034266 
Cu     13.39570249       8.01884751       4.29462861       29       0.00067234       0.00126580      -0.00098600 
Cu      6.54241960      12.37495917       3.95180958       29      -0.00175811      -0.00004069       0.00102071 
Cu      5.24298445      10.16235114       4.30823582       29       0.00020340       0.00106399       0.00042829 
Cu     11.37293499       4.41084187       4.96716883       29       0.00035122      -0.00029259      -0.00076016 
Cu      8.68441827      11.23252663       4.56447898       29       0.00074085       0.00103504      -0.00042371 
Cu     10.01090203       9.07360902       4.78093711       29       0.00077369      -0.00176699      -0.00113708 
Cu      8.78458493       4.32237290       5.05291171       29      -0.00036870       0.00012950      -0.00124752 
Cu      8.65788717      13.73646901       4.56652334       29      -0.00096941       0.00137035       0.00222153 
Cu      4.03838350       7.91789298       4.78430433       29       0.00102354       0.00012313       0.00153081 
Cu     11.30626911       6.90975723       5.11518992       29      -0.00163000       0.00072847       0.00207678 
Cu      7.43406430       9.04542523       4.91598232       29      -0.00079359       0.00121463      -0.00017998 
Cu      6.19911394       4.35483108       5.23790166       29      -0.00033233       0.00096559      -0.00121047 
Cu      8.76385219       6.85199135       5.19558239       29       0.00223123      -0.00176956      -0.00159006 
Cu     12.89734281      12.39464690       5.14285097       29       0.00027693       0.00097446      -0.00081411 
Cu     13.48866972       5.77355134       5.58155899       29       0.00075598      -0.00056713      -0.00027502 
Cu     14.23217199      10.19367595       5.42326699       29       0.00121004       0.00019439      -0.00134024 
Cu      6.22541858       6.85484286       5.38279184       29      -0.00065470      -0.00095336       0.00059372 
Cu      4.53127621      12.30518560       5.57913342       29      -0.00073016       0.00030151      -0.00000317 
Cu     10.84519211      11.24186741       5.90630494       29       0.00087295       0.00099146       0.00074102 
Cu      4.12762855       5.67220846       6.07492983       29       0.00001471      -0.00017254       0.00151853 
Cu     12.17555705       9.04838093       6.18574574       29      -0.00154306      -0.00162479       0.00127825 
Cu     10.85440978      13.77565950       5.93797778       29      -0.00062569      -0.00128570      -0.00040649 
Cu      3.27982872      10.07615987       5.99479257       29      -0.00066710      -0.00011674       0.00041721 
Cu      6.67565688      11.19670859       6.12447790       29       0.00009332       0.00028624      -0.00050176 
Cu     10.18754808       2.97925815       6.76724517       29       0.00015616      -0.00121148      -0.00207718 
Cu     14.39708090       7.93582583       6.68183970       29       0.00061301      -0.00190846       0.00002291 
Cu      6.61492498      13.72924107       6.15960183       29       0.00080028       0.00006324       0.00088656 
Cu     14.98752838      12.32284379       6.58347881       29      -0.00089351       0.00049641      -0.00077070 
Cu      7.59973340       2.95190715       6.90231820       29      -0.00049687      -0.00087198      -0.00153218 
Cu     10.15961793       5.45188615       6.85599671       29      -0.00065545       0.00428663       0.00050432 
Cu      5.42821030       8.97523521       6.53835427       29      -0.00000930      -0.00156771      -0.00013062 
Cu      8.80935629      10.07389568       6.70652278       29      -0.00259597      -0.00037015       0.00140101 
Cu      7.58102104       5.42491879       6.98987793       29       0.00031834      -0.00048567       0.00026169 
Cu     10.10954851       7.92889182       6.97917917       29       0.00285306      -0.00041651       0.00016710 
Cu      8.78375878      12.55378612       6.73709833       29      -0.00040974       0.00091423      -0.00051262 
Cu     12.34832942       4.27980713       7.36340708       29      -0.00113650      -0.00024272      -0.00133776 
Cu      7.58984909       7.90220921       7.11078774       29       0.00203533       0.00168850       0.00264729 
Cu      8.75904813      15.02703393       6.80977604       29       0.00171404       0.00040395      -0.00016783 
Cu     12.26822923       6.81015349       7.46826327       29      -0.00117323       0.00101274       0.00014758 
Cu     12.95015016      11.18281221       7.33353524       29      -0.00003661       0.00083329       0.00147946 
Cu      3.29317785       7.81448245       7.26256957       29       0.00030321      -0.00067982       0.00056122 
Cu     13.00069849      13.68641830       7.38509723       29      -0.00023422       0.00016706      -0.00020135 
Cu      5.48078656       4.20417266       7.71880736       29      -0.00042077      -0.00018836       0.00035923 
Cu      2.60484374      12.19191344       7.22854187       29       0.00022655      -0.00111727      -0.00086509 
Cu     14.41720536       5.70362059       7.99744368       29       0.00006531      -0.00068876      -0.00034373 
Cu     15.16224537      10.12304493       7.83898757       29       0.00112798       0.00196561      -0.00028591 
Cu      5.51634546       6.73590176       7.82347496       29      -0.00058339      -0.00166003      -0.00070829 
Cu      4.73266729      11.09546423       7.76233117       29      -0.00189194       0.00086679       0.00034576 
Cu     10.92572231      10.04975560       8.08022707       29       0.00191759      -0.00130954       0.00171294 
Cu      9.00068469       1.64533788       8.57096927       29      -0.00119126      -0.00108315      -0.00010009 
Cu      4.63461110      13.59740958       7.82294374       29       0.00049211      -0.00056059      -0.00040881 
Cu     10.94822364      12.52910083       8.14133137       29      -0.00073068       0.00005965      -0.00064742 
Cu      8.97668994       4.09583761       8.65296525       29       0.00050988       0.00134756       0.00033903 
Cu      6.84879407      10.00572156       8.29296239       29      -0.00024918      -0.00080214      -0.00035699 
Cu     13.10223741       8.97811532       8.59327770       29      -0.00199710      -0.00073967      -0.00023991 
Cu     10.93108733      15.00265513       8.21820584       29       0.00016623      -0.00065783       0.00135526 
Cu      3.45881016       5.58811157       8.58620199       29      -0.00037350      -0.00053822      -0.00043202 
Cu      8.95381266       6.53281773       8.73497342       29       0.00155595       0.00013973      -0.00050486 
Cu      6.77886896      12.48478289       8.36046348       29      -0.00081171       0.00022512      -0.00116413 
Cu     11.11744865       2.90895821       9.18301947       29       0.00036707      -0.00047158       0.00092548 
Cu      2.60715734       9.98954561       8.49114273       29      -0.00116001      -0.00015920      -0.00035099 
Cu      8.93491686       8.93320068       8.81831663       29       0.00095065      -0.00219565      -0.00041215 
Cu      6.74715534      14.95763542       8.43874434       29      -0.00058227       0.00041937       0.00017060 
Cu     15.25383334       7.87825841       9.12591625       29       0.00088144      -0.00044852       0.00039950 
Cu     11.08749205       5.38211336       9.26325080       29      -0.00053498       0.00085571      -0.00066144 
Cu      8.91065711      11.33342254       8.89228544       29      -0.00066922      -0.00202951      -0.00009303 
Cu     14.39832491      12.28162556       9.05316033       29       0.00102530      -0.00003796      -0.00054346 
Cu      6.92918420       2.85873067       9.39784270       29      -0.00010891      -0.00056002       0.00013760 
Cu      4.75896649       8.88814639       9.02426095       29       0.00096780      -0.00064160      -0.00033594 
Cu     11.01654150       7.86072735       9.33423025       29      -0.00204703       0.00199972      -0.00186159 
Cu      8.88586845      13.76903399       8.97184364       29       0.00106293      -0.00017633       0.00098099 
Cu      6.91230318       5.33141803       9.47401801       29       0.00092294      -0.00082022       0.00041492 
Cu     13.23162101       4.26999609       9.79953577       29       0.00050218      -0.00087663      -0.00077765 
Cu      8.86253412      16.21923212       9.05067080       29       0.00052746       0.00001684       0.00071888 
Cu      6.93953644       7.81545700       9.54138534       29      -0.00060680       0.00003897      -0.00003235 
Cu     13.13091560       6.77170764       9.86225674       29      -0.00138525       0.00166095      -0.00052216 
Cu     12.34021597      11.12871685       9.80456962       29       0.00027468      -0.00101563      -0.00034049 
Cu      2.70011846       7.74354613       9.78546485       29      -0.00070632      -0.00088200      -0.00004366 
Cu      3.44672329      12.17026168       9.62381288       29      -0.00068066      -0.00096161      -0.00085178 
Cu     15.25972625       5.67710776      10.39293561       29      -0.00031789      -0.00071527       0.00118012 
Cu     12.37539389      13.66173702       9.89756483       29       0.00043619      -0.00024999      -0.00011412 
Cu      4.85628450       4.17772634      10.22950733       29      -0.00025411       0.00036388       0.00099559 
Cu     14.56663852      10.05060936      10.35683015       29       0.00169687      -0.00069076      -0.00064793 
Cu      4.91306593       6.68557702      10.30006067       29      -0.00059506       0.00261858       0.00078578 
Cu      5.59686054      11.06336430      10.15412855       29      -0.00173827      -0.00100378      -0.00095280 
Cu      9.10759199       2.83433680      10.81139645       29      -0.00060607       0.00102155       0.00133884 
Cu     10.28028572       9.96936625      10.52477655       29       0.00122432      -0.00047235      -0.00102192 
Cu      5.51576412      13.59016958      10.26199963       29      -0.00036187       0.00008656       0.00014642 
Cu      9.08880205       5.30948489      10.88407583       29      -0.00056581      -0.00154752       0.00090436 
Cu      7.75847184       9.94154003      10.64592148       29       0.00143618       0.00106613       0.00160284 
Cu     10.28112450      12.44028470      10.63390756       29       0.00003394       0.00064533       0.00011239 
Cu      9.06209575       7.78545472      10.92802214       29       0.00002857       0.00020365       0.00017858 
Cu     12.43411608       8.89218862      11.08407465       29       0.00057550      -0.00164842      -0.00058374 
Cu      7.70161183      12.41564030      10.77240325       29       0.00042753      -0.00108899       0.00136442 
Cu     10.26156396      14.91485509      10.71973661       29       0.00017410      -0.00029131      -0.00088001 
Cu      2.87933091       5.55704570      11.08859331       29      -0.00061374       0.00000761      -0.00027405 
Cu     11.25132569       4.13295371      11.46262146       29      -0.00042961      -0.00003667      -0.00069050 
Cu      3.45962272       9.94196686      10.92799713       29       0.00043493      -0.00037355      -0.00048078 
Cu      7.67246437      14.88724171      10.85838932       29      -0.00039768      -0.00072906       0.00029528 
Cu     11.18425951       6.66802395      11.50143089       29       0.00138545       0.00115575       0.00159462 
Cu     14.58439981       7.79081741      11.62586846       29      -0.00054441       0.00123564       0.00133558 
Cu      7.01437515       4.07477585      11.67488419       29       0.00111303      -0.00076705       0.00014122 
Cu      5.68833246       8.83077680      11.41578282       29      -0.00126070      -0.00138179      -0.00143295 
Cu     13.72299187      12.18909421      11.53969278       29       0.00117059       0.00082781      -0.00057255 
Cu      7.04018500       6.60126413      11.69115464       29       0.00177556       0.00158500       0.00019715 
Cu     13.33115935       5.56053650      12.04323539       29      -0.00072832      -0.00066055       0.00080439 
Cu     11.65879377      11.02895855      12.27296332       29       0.00528063       0.00128696      -0.00129565 
Cu      3.62088903       7.69844228      12.20534283       29       0.00077400       0.00014581       0.00009737 
Cu      4.37472507      12.09174418      12.04526879       29      -0.00045161      -0.00106417      -0.00030348 
Cu      4.98012729       5.44012313      12.47007471       29       0.00049826       0.00182554       0.00174913 
Cu      7.88900323       8.80739528      12.83760987       29       0.00069430       0.00080964      -0.00120837 
Cu     11.65176485      13.50766849      12.37338620       29       0.00016845      -0.00022436      -0.00076756 
Cu     10.43932614       8.81945862      12.70343635       29      -0.00063135      -0.00058348       0.00158868 
Cu      6.55506508      10.94819075      12.51515566       29      -0.00235363      -0.00059858      -0.00582855 
Cu     13.81713788       9.93977736      12.82551312       29       0.00073270       0.00077393       0.00417568 
Cu      9.19470875       4.13869302      13.04184127       29       0.00080068      -0.00057368       0.00042893 
Cu      9.07321762      13.55098085      12.57105989       29       0.00685434      -0.00433908      -0.00024213 
Cu      5.84442782       7.63845498      13.58827752       29       0.00129232       0.00461538      -0.00061553 
