147
Lattice="17.8894958647 0.0 0.0 0.0 17.8894958647 0.0 0.0 0.0 17.8894958647" Properties=species:S:1:pos:R:3:Z:I:1:forces:R:3 energy=-459.761478094 pbc="F F F"
Cu      8.35733122      11.69863668      15.59027143       29      -0.00011935      -0.00024779      -0.00008209 
Cu      7.86256590       9.22441826      15.29709898       29      -0.00022355      -0.00057472      -0.00010492 
Cu      7.37375941       6.71181399      14.91469524       29       0.00023033       0.00011803      -0.00052111 
Cu      6.20665434      11.01643210      14.42778243       29       0.00037624      -0.00041565       0.00001475 
Cu     10.26327384      10.13429290      14.98485488       29       0.00028445       0.00003590      -0.00036275 
Cu      5.67710042       8.49953053      14.11295533       29       0.00046447       0.00049036       0.00036958 
Cu      6.90642341       4.25848675      14.45632247       29      -0.00069803       0.00022160      -0.00006692 
Cu      9.79287257       7.60876949      14.67424764       29       0.00004897      -0.00013344       0.00026362 
Cu      5.22520735       5.98894805      13.66211701       29       0.00028042      -0.00029542       0.00008880 
Cu      4.06009394      10.29391371      13.17648674       29       0.00045442      -0.00010962      -0.00016580 
Cu      7.58565161      13.03609824      13.57324110       29       0.00053590      -0.00040183       0.00054029 
Cu      9.28657686       5.11102706      14.21571163       29      -0.00011836       0.00013810      -0.00069110 
Cu     10.09237955      12.49507853      13.91687264       29       0.00011435      -0.00021830       0.00001861 
Cu      3.56847050       7.77918698      12.79331955       29      -0.00051475       0.00048799      -0.00008149 
Cu     12.18394985       8.54034973      14.27535532       29       0.00019990       0.00052905       0.00025737 
Cu      8.44674164      10.69415737      13.35479111       29      -0.00013801       0.00033455       0.00014190 
Cu      2.00181866       9.55939234      11.88445969       29      -0.00026317      -0.00000590      -0.00047618 
Cu      5.39693019      12.36078825      12.36671838       29      -0.00018585      -0.00024616      -0.00037172 
Cu      7.95399215       8.21715648      13.03847927       29      -0.00007627       0.00039256       0.00049454 
Cu     11.69082760       6.02666830      13.89652324       29      -0.00018699       0.00005231       0.00012499 
Cu      6.30350893      10.00317922      12.17224627       29       0.00038321      -0.00032886       0.00072969 
Cu     12.04013429      10.91673364      13.28595220       29      -0.00007785      -0.00051625       0.00011535 
Cu      7.48234554       5.75602735      12.60233773       29       0.00045618       0.00021906       0.00000742 
Cu      5.80766332       3.94042475      12.18893890       29      -0.00011117       0.00016082       0.00020805 
Cu     10.34580906       9.12438035      12.72434285       29       0.00052487       0.00021619       0.00006442 
Cu     14.02202735       6.96663640      13.51441160       29      -0.00012438       0.00027158      -0.00046942 
Cu      3.29140353      11.59027954      11.06995496       29       0.00028313       0.00039479      -0.00023757 
Cu      8.31817151       3.39849711      12.52885544       29       0.00001246       0.00030640      -0.00020552 
Cu      5.81326449       7.49722431      11.79051704       29      -0.00013926      -0.00025046      -0.00025562 
Cu      6.81877290      14.33198529      11.46784329       29      -0.00016340      -0.00019373      -0.00015788 
Cu      4.09132515       5.69127162      11.35164407       29      -0.00007779       0.00098143      -0.00003926 
Cu      9.33488659      13.85935800      11.84623611       29      -0.00026779      -0.00018841      -0.00059138 
Cu      9.86105708       6.62123849      12.34159709       29      -0.00055949       0.00016040       0.00007047 
Cu      4.22758081       9.27447978      10.89564671       29      -0.00003240      -0.00066563      -0.00048859 
Cu     11.82741794      13.25954196      12.15241186       29       0.00020731      -0.00017262       0.00021422 
Cu      7.67907934      12.01569027      11.32052874       29      -0.00053374       0.00073181       0.00113014 
Cu      2.49482388       7.52227989      10.45065532       29      -0.00037656       0.00007601      -0.00002272 
Cu     10.74819004       4.25256984      12.25955399       29      -0.00023154      -0.00037204      -0.00035181 
Cu     10.17937755      11.47650340      11.66231712       29       0.00002385      -0.00042152       0.00002759 
Cu     13.94108068       9.30230283      12.50320402       29       0.00007033      -0.00073513      -0.00083103 
Cu      4.67101687      13.60849554      10.21567177       29      -0.00043051       0.00011711       0.00032194 
Cu      8.53409553       9.69535498      11.13252744       29      -0.00009284      -0.00003806      -0.00011949 
Cu     12.20604549       7.55275804      11.97786171       29       0.00060227       0.00061571      -0.00024891 
Cu      5.53758333      11.29511506      10.07311959       29      -0.00047595       0.00017355      -0.00067631 
Cu      8.05445811       7.24402368      10.75920873       29       0.00021856       0.00026682       0.00044784 
Cu     13.12192194       5.22408320      11.89518907       29      -0.00022481      -0.00027644      -0.00024752 
Cu      2.32291662       9.87747764       9.38578366       29       0.00007079      -0.00029581      -0.00022683 
Cu      6.39380888       5.45557058      10.32212565       29      -0.00008908       0.00055617       0.00033781 
Cu     13.70591618      11.64829585      11.49245815       29      -0.00001380       0.00031750      -0.00003110 
Cu      8.89598159       4.91587559      10.65961589       29      -0.00017723      -0.00047477       0.00012709 
Cu      6.44022154       8.99077008       9.91262838       29      -0.00056770      -0.00074573      -0.00032053 
Cu      4.73356787       3.68302622       9.84666757       29      -0.00047057       0.00037108       0.00021446 
Cu     12.07488292       9.87370772      10.96691510       29       0.00039677      -0.00059622       0.00021303 
Cu      6.08601570      15.53501665       9.35622015       29       0.00021747       0.00015471       0.00040317 
Cu      7.22309639       3.06743516      10.20439249       29      -0.00015921       0.00036102       0.00040950 
Cu      4.74328963       7.24093109       9.45602243       29      -0.00070769       0.00031294      -0.00020313 
Cu      8.56266277      15.08560140       9.70327328       29       0.00010162       0.00030333       0.00034694 
Cu     10.39392668       8.13079200      10.45048815       29       0.00021724      -0.00000916      -0.00018823 
Cu      9.74613978       2.61209864      10.53119192       29      -0.00035963       0.00003609       0.00041842 
Cu      3.07701932       5.47478656       8.97767024       29       0.00043956      -0.00021124      -0.00013203 
Cu     11.08139962      14.54002576      10.04551362       29       0.00037142       0.00034706       0.00008612 
Cu      6.93862802      13.24038775       9.21766639       29      -0.00000112      -0.00024413       0.00034893 
Cu     14.50650191       7.23530226      11.03956977       29      -0.00003535       0.00007166       0.00004383 
Cu      3.63669894      11.93864259       8.52660642       29       0.00013559      -0.00012882       0.00002542 
Cu     13.55657004      13.89037679      10.36769324       29       0.00030336      -0.00031786       0.00022436 
Cu     11.28700015       5.82107458      10.34504352       29       0.00025592       0.00084848       0.00030718 
Cu      9.41489894      12.76812930       9.56211209       29      -0.00069458       0.00020598       0.00019469 
Cu     11.86487756      12.17371867       9.88735758       29       0.00028343      -0.00015606      -0.00018694 
Cu      7.78496143      10.95816934       9.07996239       29       0.00017005       0.00014864       0.00012642 
Cu      4.57209433       9.58804334       8.39482502       29      -0.00039544       0.00009616      -0.00044848 
Cu     10.22719877      10.42941307       9.41236877       29       0.00003364       0.00100684      -0.00033927 
Cu     12.15118589       3.52293102      10.21424571       29      -0.00025465      -0.00009103      -0.00003916 
Cu      2.82956535       7.81735759       7.89893295       29      -0.00047688      -0.00004969       0.00060248 
Cu      8.61908834       8.70793209       8.94414768       29       0.00011135      -0.00007836       0.00004232 
Cu     15.88767720      11.43639393      10.45165402       29       0.00018452      -0.00101353       0.00025844 
Cu      7.00836901       6.99327496       8.47648629       29       0.00054104       0.00036877      -0.00057629 
Cu      5.08159190      13.91474077       7.67795157       29      -0.00015802      -0.00030606       0.00037337 
Cu     12.65735858       7.82221458       9.49147239       29       0.00001009       0.00001145      -0.00020128 
Cu      9.45734397       6.45352302       8.80769067       29      -0.00030286      -0.00037355      -0.00033815 
Cu      5.37215720       5.25084360       8.00122125       29       0.00074766      -0.00012468      -0.00026652 
Cu      7.82693574       4.65974489       8.32728847       29       0.00054298       0.00027226      -0.00032379 
Cu      3.72661191       3.49711174       7.52304487       29      -0.00005688      -0.00019883       0.00009507 
Cu      5.94708775      11.60020281       7.54358434       29      -0.00011118      -0.00041519       0.00033937 
Cu     13.60087925       5.48151050       9.36139817       29      -0.00052865      -0.00043708       0.00188949 
Cu      2.73382875      10.18366901       6.84842421       29       0.00000865      -0.00026108       0.00046303 
Cu     10.31491563       4.14666036       8.66818592       29      -0.00037855       0.00004897       0.00019326 
Cu      6.17038808       2.88436159       7.84445492       29      -0.00003749      -0.00056072       0.00040509 
Cu     12.49407359      13.75445822       8.03945727       29       0.00050862       0.00031065      -0.00030998 
Cu      7.48396890      14.82725352       7.35928400       29       0.00063193       0.00020595       0.00160026 
Cu      6.84076889       9.28892286       7.43870948       29      -0.00023561       0.00055116       0.00065319 
Cu      8.67104402       2.35447922       8.18637309       29      -0.00110047      -0.00044543      -0.00233549 
Cu     14.13421933      11.96430113       8.85929634       29      -0.00752934       0.00466729       0.00255069 
Cu     10.00870957      14.36069602       7.68509007       29       0.00072565      -0.00008169      -0.00020915 
Cu      3.48800264       5.78124904       6.43891473       29      -0.00025671      -0.00041016       0.00028940 
Cu     10.84365784      11.96974376       7.56548270       29      -0.00574573       0.00064246       0.00057617 
Cu     11.69816568       6.12662532       7.81342705       29      -0.00814090      -0.00256152       0.00170899 
Cu      9.36965590       8.19776537       2.59110580       29       0.00006268       0.00011963      -0.00067498 
Cu     11.55861572       8.92275463       3.77305677       29      -0.00017254       0.00038202       0.00064352 
Cu      6.96644787       7.28616192       2.90902432       29       0.00009156      -0.00001319       0.00014624 
Cu     11.02819886       6.40786245       3.45964324       29       0.00038892      -0.00012000       0.00003293 
Cu     13.67006295       9.64585740       5.10093045       29       0.00019650       0.00013778       0.00070845 
Cu     13.17769991       7.13354208       4.71464291       29       0.00054737      -0.00008948      -0.00018109 
Cu      7.44231184       9.81387801       3.21608110       29      -0.00046058      -0.00033974      -0.00049561 
Cu      8.87479669       5.72466434       2.29922444       29      -0.00054228       0.00037851       0.00015508 
Cu      9.85919744      10.70996130       2.97241794       29      -0.00016597      -0.00020925      -0.00012367 
Cu     11.83981615       5.06498304       5.51807136       29      -0.00056937       0.00008536       0.00051725 
Cu     12.00738241      11.43184502       4.21907787       29      -0.00018631       0.00043290      -0.00010611 
Cu      5.05573399       8.88754596       3.60910888       29       0.00026958       0.00004702      -0.00026270 
Cu      9.64783095       4.38904589       4.31557690       29      -0.00014945       0.00012573       0.00025713 
Cu      3.21852692      10.46595468       4.37183324       29      -0.00020676      -0.00007500       0.00033463 
Cu      6.88586798       8.29636106       5.16658772       29      -0.00037967      -0.00055426      -0.00035288 
Cu      7.94900075      12.31277750       3.67382916       29      -0.00083364       0.00018276      -0.00006934 
Cu      5.18147806       6.50449825       4.61677946       29       0.00071815      -0.00011100      -0.00052916 
Cu      9.28043260       9.20467461       4.84952179       29       0.00011761      -0.00065814      -0.00024758 
Cu     10.32759458      13.16399260       3.42941648       29      -0.00039455       0.00055055       0.00008680 
Cu     15.23741014       7.87097040       6.01049314       29       0.00009627      -0.00024685      -0.00027909 
Cu     11.42004136       9.92299628       6.09393521       29      -0.00031186       0.00098742      -0.00019912 
Cu      8.78865135       6.72911318       4.53445044       29       0.00000658      -0.00036614      -0.00061661 
Cu     13.94488761       5.83541991       6.81765235       29      -0.00034428       0.00040179       0.00005201 
Cu     14.75747777       9.90938564       7.45825016       29       0.00033044       0.00007781       0.00013716 
Cu      7.13748035       4.93188334       3.97311407       29      -0.00015523       0.00015680      -0.00027722 
Cu     10.93391618       7.42003877       5.71556339       29      -0.00025048       0.00033745       0.00022118 
Cu      5.54800435      11.40194352       3.99197871       29      -0.00048732      -0.00093930       0.00037100 
Cu      9.18263584      10.17797539       7.12936341       29       0.00034290      -0.00048664       0.00078754 
Cu     10.41139892       3.10769168       6.41864328       29      -0.00063061       0.00073773      -0.00007156 
Cu      9.55819936       5.40916972       6.56992657       29       0.00084522      -0.00066134      -0.00021523 
Cu      8.91636508      14.02642789       5.35762816       29      -0.00042440      -0.00037538       0.00013780 
Cu      3.31659249       8.13499882       5.37465115       29      -0.00033551      -0.00058086      -0.00003645 
Cu      9.75396188      11.66649285       5.28504182       29       0.00039269       0.00117445       0.00034528 
Cu      5.03492403       9.87582776       5.90995973       29       0.00014217       0.00021977      -0.00026465 
Cu     13.13645967      11.73196791       6.51868430       29       0.00008317      -0.00012887       0.00008834 
Cu      5.15275016       7.54617470       6.92612498       29       0.00038864       0.00035411      -0.00023638 
Cu      5.39820364       4.17933896       5.73770919       29       0.00037182      -0.00015271      -0.00004451 
Cu      4.11332408      12.20263523       5.99437998       29       0.00002962      -0.00003670      -0.00007224 
Cu      7.37651137      10.80182360       5.54820517       29      -0.00030285       0.00028620      -0.00030246 
Cu      8.70245587       7.72700481       6.75597476       29       0.00017816      -0.00064817      -0.00022943 
Cu      7.89684756       3.57020616       6.03970629       29       0.00111523      -0.00093183       0.00267672 
Cu      6.48762806      13.17292174       5.63308303       29      -0.00017694      -0.00150362      -0.00192703 
Cu      8.34242340      12.50912675       7.22667751       29      -0.00017434       0.00110419       0.00040179 
Cu      7.05654885       5.94978773       6.22744849       29      -0.00007287       0.00037144       0.00015146 
Cu     13.01270520       8.15293795       6.99715305       29       0.00024268       0.00134439      -0.00015160 
Cu     10.79417396       8.42883602       7.97448168       29       0.00852964       0.00212906      -0.00095021 
Cu     14.91708469       7.54021423       8.50471507       29       0.00046475       0.00113328      -0.00214566 
Cu     11.42257241      13.48619305       5.69691397       29       0.00512574      -0.00134959      -0.00141807 
Cu     12.48544676      10.18038639       8.42604620       29       0.00794592      -0.00503700      -0.00254349 
Cu     14.37794873       9.58317759       9.98251292       29       0.00040848       0.00017448      -0.00013902 
Cu     12.56269943       3.82929434       7.67044516       29       0.00094345      -0.00012995      -0.00006527 
