147
Lattice="18.4691726269 0.0 0.0 0.0 18.4691726269 0.0 0.0 0.0 18.4691726269" Properties=species:S:1:pos:R:3:Z:I:1:forces:R:3 energy=-459.359013435 pbc="F F F"
Cu     10.89987378       8.76949947      16.31582382       29      -0.00227684      -0.00097259       0.00090521 
Cu      8.47043047       8.70835607      15.58125680       29      -0.00271761       0.00169037      -0.00311379 
Cu     11.55255103       5.55880447      13.31217064       29       0.00212374      -0.00105403      -0.00340165 
Cu     10.04300462       6.71542873      15.07788152       29       0.00187741       0.00166534      -0.00152117 
Cu      9.86081373      10.91487755      15.42046054       29       0.00169029       0.00004614       0.00102945 
Cu      6.02218070       8.64383672      14.74696365       29       0.00007597      -0.00297685      -0.00021652 
Cu      8.76414503      12.99849415      14.41092867       29      -0.00072240      -0.00235436       0.00101137 
Cu      9.16545465       4.66486005      13.74329536       29      -0.00218536       0.00013509      -0.00069432 
Cu     12.30842466      10.24782769      14.80709283       29       0.00043575       0.00260360      -0.00286489 
Cu      7.36337127      10.84328592      14.65365408       29       0.00013773       0.00306891       0.00266603 
Cu     10.34063612       8.93106063      13.93879598       29       0.00057826      -0.00245053       0.00087003 
Cu      7.57000117       6.61952767      14.31864199       29      -0.00163169      -0.00059948      -0.00074435 
Cu     11.21929106      12.29718710      13.77311429       29      -0.00273524       0.00225006      -0.00115846 
Cu      9.25436295      11.01744169      12.99785164       29      -0.00240239       0.00409270       0.00250595 
Cu     12.39788429       7.65861202      14.58783627       29       0.00099255      -0.00214167       0.00164624 
Cu     13.88177247       6.54724171      12.76527543       29       0.00051501       0.00106309      -0.00121705 
Cu      5.48494496       8.81085356      12.32918324       29       0.00214662      -0.00068060      -0.00051074 
Cu     10.79733147      14.18940582      15.20092877       29       0.00177964      -0.00406575       0.00158189 
Cu      6.71260248       4.61790186      12.91168624       29       0.00121308      -0.00197557      -0.00035721 
Cu      4.94786836      10.77844349      13.73612617       29       0.00027686      -0.00147256       0.00090793 
Cu      7.90109450       8.85020626      13.17664096       29       0.00199691       0.00225842      -0.00373179 
Cu     11.73125416      10.34498362      12.37270429       29      -0.00161968      -0.00235206       0.00163498 
Cu     13.68116721      11.66405642      13.17469954       29       0.00074284      -0.00124301       0.00152930 
Cu     10.16829908      14.49080955      12.80708299       29      -0.00029322      -0.00384027       0.00253626 
Cu      6.31833943      12.94299338      13.56115575       29      -0.00001046       0.00175343      -0.00094620 
Cu      5.14959850       6.60384608      13.40823456       29      -0.00263712       0.00352506      -0.00081988 
Cu      6.83463350      10.98218163      12.17080948       29      -0.00246661      -0.00114455       0.00019075 
Cu     10.63569300      12.52032922      11.37137272       29      -0.00025987      -0.00085434       0.00430482 
Cu     13.11674031      13.60224983      14.58014949       29       0.00065093       0.00186194      -0.00207878 
Cu      9.48125538       6.87501772      12.67715515       29      -0.00477380       0.00240059      -0.00068006 
Cu     13.84081611       9.11018903      13.01729335       29      -0.00075357      -0.00185708       0.00301475 
Cu     11.82841154       7.80479578      12.18697555       29       0.00262849      -0.00000321       0.00122274 
Cu      7.58681633       9.72529944       2.15334881       29      -0.00296388       0.00167333      -0.00367994 
Cu      8.62911943       7.59669606       3.06036415       29      -0.00054695      -0.00006489       0.00039321 
Cu     10.01580485       9.77962415       2.88978805       29       0.00169197      -0.00107917       0.00143943 
Cu      6.19623601       8.23873942       3.67267231       29      -0.00047901      -0.00023017       0.00496776 
Cu      8.43998776      11.76925274       3.39569306       29      -0.00461764       0.00120425      -0.00019272 
Cu     11.10405259       7.62246468       3.82069476       29       0.00098355       0.00122787       0.00167426 
Cu      6.07761848      10.81681979       3.87866269       29      -0.00131754       0.00130777       0.00095342 
Cu      9.69158701       5.46225486       4.06487688       29       0.00179884      -0.00205361      -0.00230955 
Cu     12.46704334       9.82626947       3.72176528       29      -0.00270891       0.00016075       0.00221974 
Cu      7.23502174       6.06347198       4.61708610       29       0.00158046      -0.00073531       0.00021037 
Cu     10.91399280      11.85167363       4.16202417       29      -0.00151570      -0.00294702       0.00028417 
Cu      8.14079040       9.56047991       4.53582579       29       0.00140974      -0.00360071       0.00443108 
Cu     12.14235865       5.50647945       4.89616330       29       0.00119158       0.00324148      -0.00185274 
Cu     13.53003037       7.68906341       4.72339051       29      -0.00219612       0.00010477       0.00192827 
Cu     10.73384907       3.40451481       5.12493107       29       0.00272655       0.00067303      -0.00053630 
Cu     14.84290312       9.86315935       4.61812883       29      -0.00334751      -0.00034180       0.00069867 
Cu      4.83030459       6.74509820       5.29043687       29      -0.00087405       0.00414974      -0.00159602 
Cu      9.31268347      13.80493089       4.73333854       29      -0.00129039       0.00293597      -0.00047425 
Cu      4.64913481       9.32380114       5.44450009       29       0.00352583       0.00268945       0.00194090 
Cu      6.92064729      12.90172356       5.16273896       29       0.00440407      -0.00132427       0.00118998 
Cu      8.32376143       3.97089398       5.68349751       29       0.00435599      -0.00468401      -0.00380240 
Cu      9.18698286       7.43758948       5.46631528       29      -0.00410711       0.00245782       0.00391892 
Cu     10.56893398       9.61248832       5.29622512       29      -0.00356957      -0.00312912      -0.00389819 
Cu     13.34382336      11.86373649       5.06312753       29      -0.00225550       0.00129859      -0.00262704 
Cu      4.59147460      11.89991815       5.70058671       29      -0.00111793       0.00331823       0.00222227 
Cu      5.89575216       4.61237400       6.29560909       29      -0.00107206      -0.00320244      -0.00034825 
Cu      6.76140183       8.07745345       6.07800931       29       0.00115049       0.00069855      -0.00038711 
Cu      8.99734990      11.59516057       5.80046207       29      -0.00401817       0.00070669      -0.00226368 
Cu     11.76551187      13.85334832       5.56860166       29       0.00143271      -0.00050150      -0.00016954 
Cu      6.64302133      10.64617204       6.28203256       29       0.00153047      -0.00113525       0.00286856 
Cu     11.62908204       7.48307777       6.29515996       29       0.00048861       0.00063263      -0.00245386 
Cu     10.23173956       5.36663815       6.50842422       29       0.00047441      -0.00105013       0.00068966 
Cu     12.95713906       9.65203272       6.17128405       29       0.00295657      -0.00406464       0.00305653 
Cu      3.54097180       5.30635144       6.93855724       29      -0.00250732      -0.00364764       0.00201564 
Cu     10.17226962      15.75433659       6.11456531       29       0.00032099       0.00145835       0.00140223 
Cu      3.34402859       7.83003130       7.11183456       29      -0.00354609       0.00241250      -0.00091233 
Cu      7.82508127      14.88965543       6.55500313       29      -0.00148081       0.00045495       0.00161703 
Cu      7.82378733       5.95153336       7.07970417       29      -0.00016501      -0.00093243      -0.00246869 
Cu     13.73651035       6.18102396       6.81993140       29       0.00240990      -0.00155793       0.00141887 
Cu     12.29069461       4.04036089       7.02626459       29       0.00298360       0.00107807      -0.00050040 
Cu     11.44243295      11.64189977       6.63046034       29      -0.00431344       0.00106586       0.00354673 
Cu     15.06642929       8.40113701       6.67962365       29      -0.00182669       0.00538606       0.00253126 
Cu      8.69237665       9.39615483       6.90512409       29      -0.00248200      -0.00085244       0.00286751 
Cu      3.22470646      10.40738796       7.31739178       29      -0.00304680      -0.00072590      -0.00422611 
Cu      5.46464475      13.93800932       7.03894323       29       0.00419349       0.00069904       0.00030179 
Cu      9.93162221       3.09209195       7.51406533       29      -0.00104194       0.00204643      -0.00114756 
Cu     14.94989716      10.98745818       6.89454973       29       0.00096660      -0.00105450       0.00051321 
Cu      5.45536429       6.62813664       7.71376001       29       0.00420494       0.00077097      -0.00312049 
Cu      9.85871964      13.56157330       7.16456916       29      -0.00349379      -0.00257545       0.00247710 
Cu      3.18792776      12.93536415       7.54671106       29      -0.00250412       0.00278791      -0.00094755 
Cu      7.47868724       3.66361149       8.11220930       29      -0.00018290      -0.00453255       0.00005567 
Cu      5.28023875       9.15858537       7.89357530       29       0.00562171      -0.00221935      -0.00173207 
Cu      7.51447854      12.67573897       7.61531392       29      -0.00364485       0.00000034      -0.00192998 
Cu     13.43040579      13.02907917       7.37651621       29      -0.00260485       0.00107048       0.00019682 
Cu      9.73139175       7.31708931       7.88406582       29      -0.00385332      -0.00153638       0.00068210 
Cu     11.08199820       9.44114597       7.71621253       29      -0.00176906       0.00029486       0.00039375 
Cu      5.22179576      11.69117622       8.11630264       29       0.00367282      -0.00152568      -0.00037276 
Cu      5.07117235       4.37667996       8.74041278       29      -0.00190818      -0.00059489      -0.00085099 
Cu      7.35903397       7.94219293       8.48260485       29       0.00285977       0.00158714      -0.00293265 
Cu     11.79402899      14.96956153       7.90469870       29       0.00346153       0.00029357       0.00043038 
Cu     11.77733662       6.02225230       8.41826355       29      -0.00122197      -0.00133233       0.00067152 
Cu      9.54524296      11.38100553       8.20919647       29      -0.00180744       0.00426865       0.00036531 
Cu     13.15939901       8.19514928       8.24502073       29       0.00357703      -0.00155385      -0.00174701 
Cu      7.24310886      10.45429508       8.68166843       29       0.00232983      -0.00844855      -0.00369174 
Cu      9.42544082       5.07734717       8.90433962       29       0.00171536      -0.00775194      -0.00346096 
Cu     13.04555099      10.76959548       8.45697502       29      -0.00073341      -0.00155294      -0.00038927 
Cu      3.49452502       6.36590551       9.24631890       29       0.00176344      -0.00124127       0.00184713 
Cu      9.35667215      15.60906225       8.51566255       29      -0.00026703      -0.00007846      -0.00253171 
Cu     13.82599045       4.75366479       8.98111359       29       0.00316096      -0.00230298      -0.00156289 
Cu     15.21319337       6.93413350       8.80700348       29       0.00204687       0.00141249      -0.00105118 
Cu      3.29702037       8.93717419       9.45037957       29      -0.00242327       0.00289311      -0.00113468 
Cu      6.96724363      14.72803959       8.99432861       29      -0.00078307       0.00363477      -0.00157510 
Cu      7.00246947       5.71608333       9.51608877       29      -0.00155016      -0.00006611      -0.00053156 
Cu      9.23209632       9.23622775       9.24106151       29      -0.00188215       0.00420520      -0.00394938 
Cu     11.47232877      12.75409650       8.95499400       29       0.00000698      -0.00328532       0.00257119 
Cu     11.49713861       3.73468618       9.47299822       29      -0.00038106      -0.00011514       0.00031882 
Cu     15.18085898       9.52064601       9.00836437       29       0.00169462       0.00216093      -0.00103756 
Cu      3.25387162      11.51860319       9.65290889       29       0.00222758       0.00020222       0.00686743 
Cu      4.63869890      13.70343106       9.48441753       29       0.00155127       0.00235025      -0.00229394 
Cu      9.10883286       2.85975645       9.95778333       29       0.00195679       0.00048601       0.00073442 
Cu     14.97563840      12.10723977       9.24210212       29      -0.00078637      -0.00266460       0.00282484 
Cu      5.43221345       7.69925693      10.02145647       29       0.00072382       0.00084360       0.00232615 
Cu      9.03788684      13.39101932       9.56601074       29       0.00185126       0.00010832      -0.00233566 
Cu     11.22733997       8.01391480       9.79266509       29      -0.00023646      -0.00371906      -0.00374017 
Cu      5.31225867      10.26499294      10.22358719       29      -0.00513279       0.00336941      -0.00203363 
Cu      8.92646382       7.08781298      10.26650016       29       0.00086020      -0.00305274       0.00103031 
Cu      6.69170933      12.44218560      10.05405807       29      -0.00114244       0.00563094       0.00071692 
Cu      6.67841916       3.50113072      10.57165129       29       0.00142976       0.00062268       0.00263899 
Cu     11.11279682      10.52589773       9.98873186       29      -0.00777776      -0.00320157      -0.00248724 
Cu     13.39978052      14.09202833       9.74515535       29       0.00082808      -0.00166035      -0.00004603 
Cu     13.24874702       6.76756751      10.35142551       29       0.00304419       0.00416691       0.00378327 
Cu      7.38035638       9.02650836      10.76627503       29       0.00036322      -0.00281442       0.00020246 
Cu      8.73103230      11.16099156      10.59244024       29       0.00549803      -0.00089506       0.00548062 
Cu      5.04959650       5.43882817      11.10267126       29      -0.00112048       0.00246674      -0.00306918 
Cu     10.95560404       5.78719161      10.85488032       29      -0.00005649      -0.00241368       0.00187332 
Cu     13.20034521       9.30052209      10.56781213       29       0.00168032       0.00101028      -0.00075536 
Cu     10.98832584      14.81043364      10.35832454       29      -0.00160177      -0.00182225      -0.00046125 
Cu     15.28124486       5.51593368      10.91443589       29       0.00157444       0.00151115       0.00087826 
Cu      8.61466049       4.90809441      11.31133189       29      -0.00037586      -0.00039886       0.00271530 
Cu     13.01273964      11.84133548      10.77082120       29       0.00230699       0.00119095      -0.00102539 
Cu      3.53641158       7.47734945      11.57289779       29       0.00066636       0.00047013      -0.00189336 
Cu      8.53987362      15.36118956      10.95223477       29       0.00360550       0.00006768       0.00188058 
Cu     13.00257032       4.51853384      11.42676066       29      -0.00099690       0.00279807       0.00170193 
Cu     15.25461360       8.04401037      11.13998081       29      -0.00177762      -0.00064414       0.00212986 
Cu      9.77580338       9.06877455      11.56821229       29       0.00252100      -0.00047502       0.00106564 
Cu      3.41398798      10.05703900      11.77415146       29       0.00236771       0.00459066      -0.00048457 
Cu      6.17618195      14.40942801      11.43316604       29       0.00228015      -0.00115984      -0.00121883 
Cu      7.03471292       6.82815129      11.84545187       29       0.00095753       0.00150605      -0.00026091 
Cu      4.72391465      12.27945574      11.64234370       29       0.00046029      -0.00036164      -0.00478484 
Cu     12.56002449      13.86786640      12.19094257       29       0.00050932       0.00332411      -0.00701020 
Cu     10.64598746       3.57438714      11.91633027       29      -0.00420915      -0.00371163       0.00205057 
Cu     15.13982441      10.62667259      11.34164540       29       0.00120316       0.00572713      -0.00064177 
Cu      8.29905689       2.71483604      12.36114032       29       0.00307185       0.00190512       0.00196259 
Cu     14.91249919      13.16930676      11.58207926       29      -0.00216644      -0.00136900      -0.00268259 
Cu      8.23309254      13.13497637      11.99092072       29       0.00219192       0.00080470      -0.00005440 
