147
Lattice="17.9407251533 0.0 0.0 0.0 17.9407251533 0.0 0.0 0.0 17.9407251533" Properties=species:S:1:pos:R:3:Z:I:1:forces:R:3 energy=-459.361022062 pbc="F F F"
Cu     10.86404575       8.86890248      16.05118341       29       0.00484251       0.00000098       0.00032118 
Cu     10.22398679      11.24783748      15.84983147       29      -0.00291641       0.00045923       0.00431420 
Cu      8.22787447      10.62739238      14.53782381       29      -0.00197831       0.00168043      -0.00095811 
Cu      8.85412035       8.16754427      14.74870130       29       0.00455608       0.00096056       0.00003348 
Cu     10.62810574       9.87242407      13.87702409       29       0.00025444       0.00122086      -0.00204254 
Cu      9.29029090       6.77339866      12.71930190       29       0.00160944      -0.00219672       0.00054068 
Cu      7.66510341      13.07690194      14.26193109       29      -0.00075540      -0.00124392      -0.00156261 
Cu      7.17496508       6.33845013      13.92990945       29      -0.00256614      -0.00123983      -0.00257974 
Cu     11.24183639       7.32525860      14.14262675       29       0.00107502      -0.00168216       0.00126453 
Cu      6.52030371       8.82694046      13.80057844       29       0.00188085       0.00217790      -0.00188840 
Cu      8.53157746       4.41318013      12.84770617       29       0.00075631      -0.00260859      -0.00378695 
Cu     12.37091731      11.56941921      13.16811547       29      -0.00003702       0.00297691      -0.00103608 
Cu     11.04098483       5.02641260      12.97357832       29       0.00072314       0.00067097      -0.00034214 
Cu      4.89178418       7.01638620      12.93287382       29      -0.00096501      -0.00459273      -0.00050347 
Cu     10.01888578      12.40399213      13.68964770       29      -0.00345071       0.00730673      -0.00578631 
Cu      8.08530482      11.70487893      12.26905079       29       0.00412099      -0.00077112      -0.00740470 
Cu      5.94987847      11.33837933      13.52344528       29      -0.00271243      -0.00253904      -0.00497320 
Cu     12.97491532       9.03766368      13.39674799       29       0.00133544       0.00045370      -0.00097990 
Cu      8.65943045       9.24015797      12.51664591       29      -0.00129601       0.00093422       0.00055498 
Cu      4.27488305       9.52582624      12.72313599       29       0.00082998      -0.00289655      -0.00138504 
Cu      8.48692484      12.25855035       1.88954174       29      -0.00257871       0.00127402      -0.00300520 
Cu      9.09744301       9.79830036       2.01410517       29      -0.00309200      -0.00252090      -0.00073706 
Cu      9.71125085       7.29298298       2.22413300       29      -0.00002353       0.00166202       0.00393327 
Cu     10.30867615       4.84280001       2.51652025       29      -0.00139199      -0.00065861      -0.00165816 
Cu      6.70281554      10.59655305       2.60012987       29      -0.00348038      -0.00148179      -0.00173990 
Cu      7.29677834       8.08023500       2.73777962       29      -0.00146871      -0.00052748      -0.00488091 
Cu     10.76382794      11.61236887       2.81017995       29       0.00110043      -0.00191783      -0.00096310 
Cu     11.41187758       9.10766208       2.95110799       29      -0.00175741       0.00099688      -0.00088888 
Cu      7.93283610       5.58645699       3.02164726       29       0.00217315      -0.00004177       0.00310300 
Cu     11.99438268       6.60029811       3.23383882       29       0.00322046       0.00303799       0.00236955 
Cu      4.92550720       8.88944223       3.39609889       29      -0.00190524       0.00453973      -0.00194967 
Cu      5.54074378       6.38400911       3.60779348       29      -0.00137159      -0.00063303      -0.00172909 
Cu      6.88822779      12.90525562       3.75423028       29      -0.00190633       0.00053079      -0.00023397 
Cu     13.04716383      10.91930876       3.82072798       29      -0.00373439      -0.00014684      -0.00139763 
Cu      9.39936377      13.53478038       3.88394712       29      -0.00146676      -0.00132852      -0.00115086 
Cu     13.66184401       8.41331420       4.03256828       29       0.00292702       0.00100258       0.00167522 
Cu      8.64925240      11.15337927       4.07225987       29      -0.00026763      -0.00349267       0.00144720 
Cu      9.25817059       8.68764293       4.21913121       29       0.00014849       0.00172221       0.00102263 
Cu      3.22462581       7.20670599       4.24752337       29      -0.00109502       0.00171502      -0.00136849 
Cu      9.85878127       6.23090350       4.48729823       29      -0.00472504       0.00165901       0.00117105 
Cu      9.11790950       3.83890718       4.52095097       29      -0.00097385      -0.00047396      -0.00033219 
Cu      5.05804179      11.22820800       4.50181872       29       0.00337038      -0.00183752      -0.00239876 
Cu     11.62814322       4.46639284       4.65320174       29       0.00024914      -0.00034236      -0.00007473 
Cu      6.87218457       9.48359356       4.80372437       29      -0.00175391       0.00361416      -0.00290947 
Cu     15.24545842      10.20974440       4.87909139       29      -0.00443417      -0.00022739       0.00362678 
Cu     11.71865769      12.89340861       4.84557801       29       0.00232134       0.00030168       0.00161569 
Cu      7.48536112       6.98630998       5.01392137       29       0.00209516      -0.00044775       0.00052622 
Cu     10.91980804      10.49515029       5.01260510       29      -0.00185036      -0.00042904       0.00242341 
Cu      6.69422361       4.57930495       5.06266882       29      -0.00218409       0.00430969      -0.00096552 
Cu     11.53381458       7.99785780       5.22449447       29      -0.00248554      -0.00188666       0.00134596 
Cu     13.35365058       6.24417217       5.41198074       29      -0.00277971       0.00086643       0.00039299 
Cu      3.33292923       9.49222066       5.35001438       29       0.00044421       0.00161570      -0.00078979 
Cu      5.15543364       7.79945982       5.63736372       29       0.00720293       0.00185064       0.00532085 
Cu      4.32929354       5.43568405       5.69191403       29       0.00058725       0.00236766      -0.00276279 
Cu      5.29647317      13.50673351       5.70806469       29       0.00041656       0.00042241       0.00137050 
Cu      7.79168011      14.20391772       5.80181600       29      -0.00082213       0.00397694      -0.00049445 
Cu     13.96775272      12.14892852       5.90347374       29      -0.00359367       0.00217546       0.00159946 
Cu      7.05703515      11.78531118       5.95422817       29       0.00395447      -0.00373919       0.00167531 
Cu     10.31826006      14.76437647       5.96366973       29       0.00160886       0.00262184       0.00081652 
Cu     13.13408888       9.79249901       6.05548110       29       0.00324137       0.00339206       0.00080203 
Cu      9.56058330      12.41247283       6.08425306       29      -0.00327659      -0.00861160      -0.00211811 
Cu     14.96419672       8.09270129       6.25078854       29      -0.00458166       0.00478502       0.00026633 
Cu      8.81004688      10.05338357       6.24207437       29       0.00337241       0.00063972      -0.00149023 
Cu      9.41016596       7.61131380       6.44721617       29       0.00310956      -0.00289349       0.00185241 
Cu      8.66658029       5.24557917       6.50616409       29      -0.00363481       0.00314736       0.00319135 
Cu      7.90816621       2.89216216       6.60397166       29      -0.00006154      -0.00235656       0.00278316 
Cu      3.51956847      11.80054917       6.50826050       29       0.00220831       0.00109226      -0.00021631 
Cu     11.16803374       5.87064956       6.63841269       29      -0.00210988       0.00228764      -0.00184328 
Cu     10.43790382       3.44610612       6.71402611       29      -0.00143427      -0.00269452       0.00025803 
Cu      5.28576182      10.08408447       6.75010262       29       0.00011817      -0.00112519      -0.00018644 
Cu      2.96528135       7.35899414       6.76917041       29       0.00296088      -0.00106595       0.00253725 
Cu     12.92837565       4.14560913       6.86867786       29      -0.00100498       0.00229206       0.00154213 
Cu     12.60369067      14.07182336       6.97309281       29      -0.00433861       0.00002848       0.00016545 
Cu      7.07727909       8.38965073       7.01870636       29      -0.00231994      -0.00313329      -0.00308333 
Cu      6.27900742       6.04111033       7.09028854       29       0.00307838       0.00546664      -0.00378102 
Cu     11.83683203      11.72151010       7.08753482       29       0.00272054       0.00134371      -0.00326762 
Cu      5.51319922       3.69034117       7.18981450       29       0.00089058      -0.00058258       0.00070740 
Cu     11.03577182       9.37900632       7.22427695       29      -0.00622582      -0.00080087      -0.00221788 
Cu     15.14759984      10.40149488       7.41227271       29      -0.00289476       0.00072312      -0.00033053 
Cu     12.82948379       7.67898455       7.43320431       29       0.00488533       0.00283904      -0.00195379 
Cu     14.59577404       5.96175495       7.66822222       29      -0.00187235      -0.00317382       0.00084322 
Cu      3.77843844      14.04137849       7.67565324       29       0.00006221      -0.00224594      -0.00158364 
Cu      6.21543581      14.73888815       7.78999897       29       0.00219986       0.00256983      -0.00069211 
Cu      3.07648592       9.67718016       7.92254148       29       0.00133763      -0.00023966      -0.00019563 
Cu      5.52408459      12.33615963       7.91068301       29      -0.00099271       0.00025893       0.00347379 
Cu      8.72582108      15.36727532       7.91534542       29      -0.00094763      -0.00012529       0.00195229 
Cu      7.97301444      13.01294764       8.02948176       29       0.00257577      -0.00269075       0.00099860 
Cu     11.20755218      15.90221649       8.04973873       29      -0.00032034       0.00065693      -0.00142240 
Cu      7.25935596      10.64010613       8.14462987       29       0.00322244       0.00575328       0.00007375 
Cu      4.91997975       7.95693033       8.16552753       29       0.00252278       0.00247974      -0.00526686 
Cu     10.45526484      13.57131801       8.16087776       29      -0.00291681      -0.00119556       0.00079863 
Cu      4.08526039       5.56719530       8.26618538       29      -0.00090907       0.00069492       0.00167155 
Cu      9.70663998      11.25292916       8.27263382       29      -0.00307749      -0.00158566       0.00031405 
Cu      8.97132599       8.96919772       8.38044518       29       0.00595721      -0.00026352      -0.00343560 
Cu      8.23074617       6.68747078       8.47773973       29       0.00319879      -0.00412778      -0.00044503 
Cu     13.85357550      12.37163998       8.47977139       29      -0.00125271       0.00039744      -0.00104564 
Cu      7.48230062       4.36976641       8.58080180       29      -0.00151424       0.00050815       0.00233226 
Cu     13.01284206       9.98039760       8.59354695       29       0.00391138       0.00214192       0.00451209 
Cu     10.67757943       7.29798012       8.60731806       29      -0.00843115       0.00239079      -0.00129073 
Cu      6.72906526       2.03850867       8.68505225       29      -0.00183638       0.00045093       0.00225912 
Cu      9.96033812       4.92531633       8.71345622       29      -0.00058075       0.00131528       0.00188766 
Cu      9.20753368       2.56981083       8.81931196       29      -0.00067680       0.00046301      -0.00017810 
Cu     12.41181342       5.60186531       8.83958947       29       0.00321713      -0.00741377       0.00296684 
Cu     14.85998266       8.25970339       8.83567546       29      -0.00152956       0.00146279      -0.00022597 
Cu     11.71650685       3.19828712       8.95244123       29       0.00149949      -0.00043869      -0.00252138 
Cu     14.15739485       3.89550175       9.07672322       29      -0.00354722       0.00016059      -0.00096199 
Cu      3.34229989      11.97649964       9.08761313       29       0.00083948       0.00119663      -0.00260498 
Cu      5.10858886      10.25968607       9.31924043       29      -0.00417563       0.00242101       0.00075167 
Cu      2.78681495       7.53386599       9.34705702       29       0.00140910      -0.00038747      -0.00258099 
Cu      6.90270588       8.55981894       9.52943194       29       0.00101012      -0.00073024      -0.00164613 
Cu     12.42628959      14.25236190       9.54561041       29       0.00046555      -0.00079658      -0.00025272 
Cu      6.10044833       6.21610863       9.65701764       29      -0.00206073      -0.00497189       0.00189695 
Cu     11.66208833      11.89807342       9.64648273       29       0.00199557      -0.00056352      -0.00034612 
Cu     10.87038066       9.55063674       9.73709498       29       0.00122017       0.00137382       0.00263751 
Cu      5.33369951       3.86558865       9.76676845       29       0.00163344       0.00166395       0.00040161 
Cu      5.00873087      13.79234516       9.88480033       29      -0.00023616       0.00022013      -0.00295322 
Cu     14.94477683      10.57421923       9.98525039       29      -0.00067606      -0.00427302      -0.00354897 
Cu     12.65060623       7.85381964       9.99706336       29       0.00653754       0.00030781       0.00172327 
Cu      7.49019041      14.50062644      10.02566254       29      -0.00014814      -0.00409752       0.00087993 
Cu      6.76959492      12.07167612      10.11433751       29       0.00046269      -0.00228776       0.00173697 
Cu     14.41468740       6.13592808      10.24551709       29      -0.00044149      -0.00147647       0.00048414 
Cu     10.02229646      15.05833846      10.12890597       29       0.00190254       0.00255557       0.00133276 
Cu      9.26359235      12.70586851      10.23370324       29      -0.00146214      -0.00351905      -0.00225968 
Cu      8.52399288      10.33075237      10.30079387       29       0.00067538       0.00407804       0.00451071 
Cu      9.12706200       7.87773512      10.51673997       29      -0.00151479      -0.00717323       0.00171692 
Cu      2.97689324       9.84307066      10.50695884       29       0.00104801       0.00405273      -0.00533658 
Cu      8.37599704       5.52958207      10.66399536       29       0.00335138      -0.00251562       0.00216987 
Cu      4.80456091       8.14350435      10.69934477       29      -0.00373278       0.00111310       0.00244445 
Cu      7.61562174       3.17629817      10.77536710       29       0.00042378      -0.00209945       0.00311011 
Cu     10.87293198       6.14390621      10.79098153       29      -0.00154111       0.00321636      -0.00034110 
Cu      3.97135010       5.78679397      10.84545197       29       0.00242100       0.00011578      -0.00137951 
Cu     10.13782391       3.72603858      10.93696655       29       0.00064037      -0.00169315      -0.00194904 
Cu     12.63426427       4.42368899      11.03704996       29       0.00205220      -0.00159149       0.00278190 
Cu     13.58224040      12.49739015      11.05529539       29       0.00463895       0.00065004      -0.00190511 
Cu     12.79945379      10.14703491      11.16383812       29       0.00067917      -0.00126753      -0.00000571 
Cu     14.57441817       8.44005753      11.40981961       29      -0.00061458      -0.00016531       0.00015821 
Cu      4.58464861      11.69644501      11.34370904       29       0.00195728      -0.00149709      -0.00104612 
Cu      6.39873975       9.94337281      11.52612579       29       0.00227221       0.00171713       0.00265346 
Cu     11.24620380      13.38487576      11.66415252       29      -0.00166085       0.00128767      -0.00124996 
Cu      7.01595261       7.43740857      11.73381457       29       0.00071047      -0.00099479       0.00260782 
Cu     10.45552462      10.98466448      11.69224109       29      -0.00365657      -0.00501012       0.00673899 
Cu      6.21493681       5.04405254      11.89929410       29       0.00073075      -0.00332015       0.00136681 
Cu      2.69526673       7.72516688      11.87798731       29      -0.00095291      -0.00023518      -0.00115765 
Cu     11.07276426       8.42845187      11.92310000       29      -0.00049483       0.00283021       0.00492295 
Cu      6.31605519      13.46725064      12.10860005       29       0.00267226       0.00075498       0.00039900 
Cu     12.87890193       6.69717902      12.24647554       29      -0.00206806       0.00142758       0.00261532 
Cu      8.80391796      14.11447221      12.21410250       29       0.00370081      -0.00249447       0.00728163 
