147
Lattice="18.7279577538 0.0 0.0 0.0 18.7279577538 0.0 0.0 0.0 18.7279577538" Properties=species:S:1:pos:R:3:Z:I:1:forces:R:3 energy=-459.321290037 pbc="F F F"
Cu      9.86086472       9.51158307      15.88402813       29      -0.00028113      -0.00230132       0.00072645 
Cu      8.44063784       7.36870637      15.54588953       29      -0.00126973       0.00250517      -0.00165168 
Cu      8.84910321      11.90425810      15.40695723       29       0.00205896      -0.00245795       0.00142263 
Cu     12.34623098       9.50942265      15.15496849       29       0.00205674       0.00016204       0.00248117 
Cu      7.41827844       9.70770978      15.13727504       29      -0.00073173      -0.00165936       0.00035062 
Cu      7.02798228       5.30336662      15.10329646       29      -0.00207493       0.00082013      -0.00250902 
Cu     10.94262422       7.35654914      14.88987325       29       0.00062468       0.00007088       0.00097872 
Cu      6.82941613      14.47727412      14.93147900       29       0.00128107       0.00160919      -0.00742517 
Cu      9.11854319      15.37548261      14.58229013       29      -0.00071179      -0.00239549       0.00186330 
Cu      6.00239080       7.58793166      14.69164765       29       0.00020332      -0.00001972      -0.00230387 
Cu      6.45208716      12.03558086      14.57396222       29       0.00058909       0.00250811       0.00016739 
Cu      9.48005785       5.26263787      14.45041552       29      -0.00216947      -0.00037230       0.00072922 
Cu     10.75110442      13.35694271      14.38244790       29       0.00175477      -0.00253256      -0.00089299 
Cu     12.90049717      11.85681336      14.21733218       29       0.00206596       0.00060502      -0.00341722 
Cu     13.39976364       7.39723702      14.08684519       29       0.00337558       0.00018588      -0.00117029 
Cu      5.02162708       9.91883196      14.18736554       29       0.00029327       0.00230934       0.00061586 
Cu     10.63658780      10.88137578      13.97816283       29       0.00022137       0.00174527      -0.00207195 
Cu     11.96095941       5.27427330      13.72337763       29      -0.00236820      -0.00065722       0.00260516 
Cu      9.23601151       8.73114558      13.64084945       29      -0.00342400      -0.00187096       0.00182797 
Cu      8.37420094      13.41075283      13.45510020       29       0.00140182       0.00300133       0.00215845 
Cu     14.02119489       9.74423082      13.19743966       29      -0.00116743       0.00219251       0.00099521 
Cu      7.81176808       6.66798465      13.22306907       29      -0.00034905      -0.00071558      -0.00095177 
Cu      8.23231581      11.00880659      13.15430704       29      -0.00209417      -0.00038368       0.00015876 
Cu     14.37469337       5.34161666      12.94799419       29       0.00096998       0.00119875       0.00128470 
Cu     11.69871302       8.76044969      12.91456478       29       0.00304228       0.00153571       0.00015488 
Cu      5.54004239       5.62741544      13.06787513       29      -0.00239081      -0.00311598       0.00028761 
Cu      7.68543002       4.18638197      12.91887120       29       0.00096510       0.00130083      -0.00072135 
Cu      6.79342011       8.95239278      12.78561802       29      -0.00214653      -0.00243981       0.00136046 
Cu      5.92136755      13.75303442      12.69814891       29       0.00190297      -0.00156664       0.00010989 
Cu     10.26529995       6.64046428      12.55128257       29      -0.00270297       0.00129738      -0.00498272 
Cu     10.29790229      14.98139402      12.47046305       29       0.00237946       0.00200152       0.00184693 
Cu      4.48010332       7.94586710      12.61820860       29      -0.00103097      -0.00161633      -0.00144762 
Cu     12.43868752      13.59028677      12.38013250       29       0.00318009       0.00007809      -0.00242574 
Cu     14.51771463      12.08310710      12.20458338       29       0.00066354       0.00134897      -0.00149422 
Cu     10.17927601       4.12980016      12.22620741       29      -0.00191599       0.00380132      -0.00007337 
Cu      5.84713053      11.29511184      12.28628589       29       0.00085112      -0.00041525       0.00193057 
Cu     14.99470531       7.63390956      12.05607604       29       0.00040353      -0.00173828      -0.00090839 
Cu     10.17649796      12.51671474      12.09502017       29      -0.00162064      -0.00107940       0.00189092 
Cu     12.26448807      11.08296731      11.97470276       29       0.00243357      -0.00033554       0.00418216 
Cu      3.57550101      10.31345146      12.08260671       29      -0.00123333       0.00005219      -0.00043595 
Cu     12.68765218       6.69404382      11.79282627       29       0.00293890       0.00609497      -0.00229065 
Cu      7.82623979      15.20670815      11.78327262       29       0.00008250      -0.00313333       0.00447922 
Cu     10.00654226      10.09094235      11.71832385       29       0.00001163       0.00125142      -0.00062596 
Cu     12.65114205       4.21194941      11.46196186       29      -0.00073114      -0.00140808       0.00134413 
Cu      8.59137613       8.02800142      11.35435577       29      -0.00139883      -0.00129846       0.00471186 
Cu     15.54653007       9.97867594      11.11364979       29       0.00073142      -0.00192728      -0.00454084 
Cu      7.66831623      12.74910601      11.22595672       29       0.00230808       0.00133225      -0.00122030 
Cu      6.33759344       7.00440487      11.17298395       29      -0.00373920       0.00287319      -0.00419863 
Cu      4.12833430      12.66960945      11.14907806       29       0.00019755      -0.00205993      -0.00077058 
Cu      8.47588975       5.57141080      11.02531505       29       0.00313014       0.00083882       0.00341105 
Cu     13.28871541       8.99120290      10.88785971       29      -0.00014479       0.00231306      -0.00226633 
Cu      7.61766624      10.31049397      10.87842807       29      -0.00076903      -0.00106888       0.00024556 
Cu      4.08277776       6.00587699      10.95865917       29      -0.00243061       0.00047183      -0.00143576 
Cu      6.18711918       4.50195562      10.82635908       29      -0.00029299      -0.00240135      -0.00080027 
Cu     11.01236373       8.03916079      10.64289285       29       0.00202617      -0.00528619       0.00488307 
Cu      9.65315815      16.56515246      10.62209753       29      -0.00230669       0.00306867       0.00167537 
Cu      8.37250529       3.12617614      10.65948789       29       0.00299986       0.00039819       0.00101777 
Cu      5.35312595       9.34560011      10.69029792       29       0.00088066      -0.00157413      -0.00507507 
Cu     14.52443586       5.67033908      10.43311537       29       0.00166235      -0.00214410      -0.00180957 
Cu     11.82084153      15.22404931      10.43656112       29      -0.00273422      -0.00142621      -0.00117854 
Cu     13.96294810      13.77606900      10.30748108       29       0.00160167       0.00006518      -0.00066185 
Cu     16.01065481      12.28615187      10.16009137       29       0.00095394       0.00134932      -0.00168332 
Cu     10.95190737       5.58295664      10.29849666       29      -0.00508009       0.00263917       0.00219002 
Cu      3.09518644       8.35504476      10.47316161       29      -0.00236855      -0.00068224      -0.00165365 
Cu      9.54895093      14.14207860      10.24852506       29      -0.00016291      -0.00885470      -0.00092075 
Cu     11.70951348      12.77990230      10.08316450       29      -0.00071128       0.00059395       0.00102661 
Cu      5.94770648      14.20685366      10.14922737       29       0.00236659       0.00030868      -0.00148561 
Cu     13.77398351      11.30505145       9.94247446       29       0.00022493      -0.00045490      -0.00195197 
Cu     10.85700452       3.13793095       9.93135896       29       0.00052319      -0.00091071      -0.00128930 
Cu      9.46062732      11.73336996       9.86551938       29      -0.00029732       0.00899273       0.00233406 
Cu     11.54914260      10.32939398       9.72739522       29       0.00268117       0.00040692       0.00066519 
Cu      5.89307139      11.68503554       9.74724282       29       0.00104875      -0.00051724       0.00038631 
Cu     15.15363975       7.99775820       9.49245390       29      -0.00291231       0.00319213      -0.00250456 
Cu      9.35962651       9.36557163       9.51709465       29      -0.00273608       0.00087316       0.00078784 
Cu      3.56560559      10.72340833       9.53385877       29      -0.00246801       0.00300359      -0.00105456 
Cu     12.81917619       7.03570839       9.27197752       29       0.00175049       0.00114064       0.00051857 
Cu      7.17313105       8.39695251       9.29793536       29      -0.00340905      -0.00146111       0.00056479 
Cu      9.26388818       6.99292817       9.15211401       29       0.00113915      -0.00259471       0.00032582 
Cu      7.85475409      15.58246721       9.13777602       29      -0.00202699       0.00057165       0.00087658 
Cu     12.77794126       4.53142358       8.89267042       29      -0.00140994      -0.00101895      -0.00036034 
Cu      4.95149301       7.41694203       9.08073600       29       0.00413822       0.00323348       0.00012973 
Cu      7.02458590       5.95014424       8.92228393       29       0.00160202       0.00170695       0.00251713 
Cu      9.16521469       4.58466876       8.78409647       29      -0.00006277      -0.00016832       0.00267976 
Cu     15.62904339      10.36270815       8.55020114       29      -0.00294136      -0.00075783      -0.00121396 
Cu      7.76866555      13.14533273       8.71292954       29       0.00073562       0.00158081       0.00343135 
Cu      2.71730294       6.43181081       8.86001977       29      -0.00178485      -0.00352978       0.00079203 
Cu      4.77283301       4.94843396       8.70028834       29      -0.00144445      -0.00039927      -0.00205870 
Cu      4.19374337      13.06313037       8.60259628       29       0.00321249       0.00371684      -0.00215343 
Cu      6.91582549       3.50666102       8.54943766       29       0.00469296      -0.00191453       0.00046123 
Cu     13.36844295       9.37701016       8.33519136       29       0.00320182       0.00274408       0.00219231 
Cu     10.33723660      15.59954518       8.36711036       29      -0.00169238      -0.00065549      -0.00131826 
Cu      9.06525826       2.16280529       8.41531547       29       0.00331280      -0.00070507       0.00054181 
Cu      7.70725123      10.68916573       8.38257696       29       0.00313168       0.00146422       0.00282740 
Cu     12.54167264      14.22218250       8.17649213       29       0.00167963      -0.00092389       0.00293272 
Cu     14.64350776      12.70732559       8.05775000       29      -0.00135885      -0.00123422      -0.00300534 
Cu     11.09106546       8.41426341       8.14820895       29      -0.00391862       0.00071678       0.00034641 
Cu     10.24771094      13.15740018       7.99706016       29      -0.00258473      -0.00107021       0.00434461 
Cu      5.43314225       9.73036427       8.13717908       29      -0.00303899      -0.00184940       0.00147853 
Cu     14.60709505       6.05331502       7.87128019       29      -0.00214563      -0.00206866       0.00084020 
Cu     12.38658232      11.71363853       7.84493503       29       0.00360369      -0.00307993      -0.00325022 
Cu     11.03182964       5.96647714       7.74734857       29      -0.00213142       0.00199810      -0.00260772 
Cu      3.17531005       8.74281258       7.91379534       29       0.00074337       0.00334940      -0.00282733 
Cu     10.13042955      10.69860716       7.67056656       29       0.00008604       0.00026157      -0.00263099 
Cu      6.06504773      14.52344566       7.57598660       29       0.00263894      -0.00163534       0.00025310 
Cu     10.93806178       3.52196331       7.37116542       29       0.00133267       0.00356765      -0.00156268 
Cu      8.71890308       8.63804404       7.31764958       29      -0.00364846       0.00093178      -0.00374929 
Cu      6.02831299      12.03676226       7.23654156       29       0.00106169      -0.00140573      -0.00260835 
Cu     15.15766702       8.40143380       6.93141609       29      -0.00016147       0.00159153      -0.00159857 
Cu      6.46667369       7.63513385       7.04695722       29       0.00059673      -0.00209130      -0.00056020 
Cu      8.60434190       6.19640757       6.89715979       29       0.00484228       0.00168751       0.00103626 
Cu     12.84830544       7.44891616       6.76078910       29      -0.00086613      -0.00341293       0.00002413 
Cu      3.72404426      11.09549537       6.97871029       29       0.00127385       0.00139935      -0.00088056 
Cu      8.53861315      14.60492504       6.80573924       29      -0.00175151       0.00031312       0.00156108 
Cu      4.21269948       6.63980619       6.81891376       29       0.00119578      -0.00304543      -0.00388161 
Cu      6.31747141       5.14025958       6.62950550       29      -0.00288718       0.00038461      -0.00107984 
Cu     14.23650266      10.76359589       6.39915935       29      -0.00069520      -0.00505585       0.00123370 
Cu      8.50214056       3.75326253       6.51669194       29       0.00219083      -0.00229199       0.00338414 
Cu      8.45893824      12.08777984       6.47426303       29      -0.00257564      -0.00472898      -0.00124361 
Cu     12.81262602       4.98026690       6.34025356       29      -0.00202982       0.00102541       0.00207928 
Cu     11.91718090       9.75615900       6.23251708       29      -0.00162040       0.00235031       0.00159207 
Cu     11.03593325      14.53877596       6.10262569       29      -0.00131863       0.00327596       0.00045134 
Cu     13.18683038      13.08891992       5.94852407       29      -0.00085371       0.00244318      -0.00199838 
Cu      7.01357892       9.97869013       6.11132892       29       0.00148767      -0.00158588       0.00055098 
Cu      4.34164647      13.39314886       6.08905537       29      -0.00117385       0.00086757      -0.00130281 
Cu     10.47328772       7.64901223       5.87060509       29      -0.00118156      -0.00148422      -0.00272561 
Cu     10.91093199      12.05607267       5.80160947       29       0.00072090      -0.00801943       0.00040933 
Cu      4.69965671       8.98617175       5.83125346       29      -0.00348610      -0.00329580       0.00329876 
Cu      7.40769376       7.15932712       2.84392963       29       0.00121480      -0.00118864      -0.00155524 
Cu      8.82857242       9.24556134       3.11642657       29       0.00421108       0.00160477       0.00096620 
Cu     12.71318989      11.12543053       4.33252328       29       0.00062476       0.00507314      -0.00332542 
Cu      6.34515752       9.23611110       3.84766871       29       0.00143259       0.00043055      -0.00070934 
Cu      9.81750160       6.89954604       3.60414758       29       0.00107063       0.00008948       0.00388777 
Cu     10.27696132      11.35994537       3.48092899       29      -0.00092163      -0.00080225       0.00417422 
Cu     11.28979004       9.00944247       3.89502016       29      -0.00081547      -0.00202701      -0.00181421 
Cu     11.69624144      13.41790230       3.92031472       29      -0.00121293       0.00003128       0.00184309 
Cu     13.70185325       8.78283115       4.82036907       29      -0.00190021       0.00012254       0.00203970 
Cu      5.79682475       6.88524749       4.78687177       29      -0.00051349      -0.00271463      -0.00344494 
Cu      7.77199346      11.37965085       4.14185477       29       0.00275874      -0.00090205       0.00146422 
Cu      7.94317446       5.44123481       4.63582291       29      -0.00093062      -0.00025973      -0.00232923 
Cu     12.25262630       6.66992855       4.45613001       29      -0.00335232      -0.00289911       0.00351474 
Cu      9.24282071      13.46914912       4.57874799       29      -0.00552261      -0.00222497       0.00071920 
Cu      8.06561025       7.90140209       5.08611158       29       0.00026722      -0.00029433       0.00716307 
Cu     14.61611132       6.47734354       5.36711291       29       0.00047924      -0.00005520      -0.00302743 
Cu      9.48880555       9.98698897       5.38319672       29       0.00403228       0.00382647       0.00191116 
Cu      5.30851970      11.34089210       4.94243154       29       0.00164421       0.00614287       0.00303674 
Cu     10.39195150       5.15388900       5.43362090       29      -0.00047779       0.00767673       0.00151800 
Cu      6.75807493      13.45950324       5.31304648       29       0.00361905      -0.00004394      -0.00007537 
