147
Lattice="18.602398562 0.0 0.0 0.0 18.602398562 0.0 0.0 0.0 18.602398562" Properties=species:S:1:pos:R:3:Z:I:1:forces:R:3 energy=-459.762362132 pbc="F F F"
Cu     10.44343842      10.71532357      15.89961320       29      -0.00005293      -0.00371517       0.00175611 
Cu     10.79570746      13.22201628      15.70489098       29       0.00164918       0.00018179       0.00095195 
Cu     10.07144309       8.15594754      16.01346077       29       0.00010374       0.00090524       0.00169451 
Cu      9.69446569       5.64585472      16.04069872       29      -0.00114671      -0.00291914       0.00113601 
Cu      8.06945368       9.73331541      15.55139738       29       0.00387017       0.00516156       0.00241949 
Cu      8.45903058      12.28866988      15.36249135       29       0.00027543       0.00097877      -0.00020247 
Cu      7.71366542       7.16888674      15.58683554       29      -0.00037302      -0.00069365       0.00459175 
Cu     12.22298400       9.10350634      14.92500306       29       0.00200292      -0.00132758      -0.00140061 
Cu     12.55683292      11.66582561      14.74190168       29       0.00221789      -0.00317474       0.00216243 
Cu     11.81304056       6.54684522      14.97004571       29       0.00099483      -0.00191788      -0.00138061 
Cu      6.10293790      11.30328584      14.93810799       29      -0.00191276       0.00225779       0.00000186 
Cu      5.72866746       8.74287811      15.04840594       29      -0.00003369       0.00069742       0.00414335 
Cu     14.29750782      10.05497107      13.69865252       29      -0.00130677      -0.00187807      -0.00027625 
Cu     13.92556488       7.49453227      13.81166354       29      -0.00502701       0.00012607       0.00320960 
Cu      9.34652972      14.21466695      13.87226326       29       0.00045722      -0.00154159       0.00150983 
Cu     11.87913248      13.82732809      13.48934959       29       0.00295389       0.00086635       0.00010221 
Cu      3.81890119      10.30646961      14.44797572       29       0.00090191      -0.00006362       0.00020063 
Cu     10.29206396      11.90245046      13.70038592       29      -0.00005301      -0.00259502      -0.00504453 
Cu      9.93594534       9.38980388      13.87285727       29      -0.00122358       0.00062309      -0.00478774 
Cu      7.99964067       4.95087684      14.28161543       29      -0.00372894       0.00009983      -0.00027256 
Cu      9.56158848       6.87511153      13.92352078       29      -0.00115824      -0.00219939      -0.00415814 
Cu     10.53172425       4.56659710      13.89987165       29      -0.00124492      -0.00188401      -0.00287888 
Cu      6.95942896      13.28129116      13.49913460       29       0.00133665       0.00077481       0.00025995 
Cu      5.96939089       6.48764477      13.79774546       29      -0.00286952       0.00143347       0.00011552 
Cu      7.95756566      10.95867917      13.33696107       29       0.00510488       0.00023461      -0.00329519 
Cu      7.58605154       8.40727882      13.44896486       29       0.00307522       0.00131969      -0.00279931 
Cu     15.94714581       8.45434201      12.61483786       29       0.00157543       0.00210757       0.00148648 
Cu     13.67793370      12.25582915      12.48298886       29       0.00086988      -0.00069361      -0.00239017 
Cu     12.04186587      10.33632119      12.71953542       29       0.00022594      -0.00016742      -0.00325147 
Cu     11.67132836       7.78566732      12.83286281       29      -0.00139596      -0.00176434      -0.00242404 
Cu     12.68781227       5.46494663      12.78267119       29       0.00037894       0.00121824      -0.00130923 
Cu      4.63277350      12.24541007      13.02467966       29      -0.00182382       0.00020737      -0.00206403 
Cu      4.02697612       8.10165585      13.20628809       29       0.00154801      -0.00139957       0.00052848 
Cu      5.66151218       9.96845311      12.86613558       29       0.00303470      -0.00292916      -0.00095628 
Cu      7.87874613      15.15405789      11.96046322       29       0.00280268      -0.00185572       0.00312309 
Cu     15.36091516      10.60601960      11.40234307       29      -0.00098666       0.00398842       0.00108148 
Cu     13.71116522       8.73937274      11.64985185       29      -0.00416173       0.00076757       0.00054152 
Cu     10.42572482      14.83795974      11.60069912       29      -0.00050351       0.00387522       0.00160779 
Cu      8.84212715      12.87672781      11.85200931       29       0.00255651       0.00091096       0.00073672 
Cu     14.75502855       6.46369161      11.58386208       29      -0.00080792      -0.00121153       0.00033272 
Cu      6.29753792       4.30761207      12.43838825       29      -0.00125950       0.00326008       0.00294425 
Cu     11.36710972      12.49117599      11.47012702       29      -0.00035550      -0.00390473       0.00230111 
Cu     12.94363546      14.37806383      11.19439277       29       0.00020811       0.00272784       0.00015423 
Cu      7.86917073       6.19745275      12.14785055       29      -0.00053469      -0.00331244      -0.00218670 
Cu      9.79166651      10.59022589      11.70653621       29       0.00095574       0.00463434       0.00785459 
Cu      9.42905713       8.09645805      11.81777277       29      -0.00366589      -0.00142000       0.00425883 
Cu      8.82295561       3.85032052      12.08708912       29       0.00098381       0.00235183       0.00046532 
Cu     10.39356293       5.81303276      11.76623298       29      -0.00345776      -0.00359077       0.00010751 
Cu     11.35963046       3.53729398      11.67177836       29       0.00113110      -0.00146335       0.00112417 
Cu      5.52098929      14.16948153      11.53830166       29       0.00087239       0.00054759      -0.00079084 
Cu      3.34941864      10.26639523      11.95209756       29       0.00134177       0.00061166       0.00179322 
Cu      6.49276731      11.89624329      11.43027256       29       0.00168529      -0.00083931      -0.00318421 
Cu      4.31136727       5.88380162      11.90172232       29      -0.00028214       0.00114923       0.00143192 
Cu      5.89052330       7.76702612      11.61297313       29      -0.00203319      -0.00008835      -0.00282538 
Cu      7.49475352       9.63099924      11.29458523       29      -0.00074779       0.00310260      -0.00264695 
Cu     13.10190111      10.88651115      10.43073849       29      -0.00443823       0.00068973      -0.00011765 
Cu     11.48727853       9.02193457      10.69064961       29       0.00744162       0.00098320      -0.00174295 
Cu     14.68388532      12.76844382      10.15099799       29      -0.00061709       0.00152323      -0.00017798 
Cu     12.49827349       6.75851736      10.61267244       29      -0.00102443       0.00015126      -0.00180782 
Cu     15.64165313       8.38695842      10.09470645       29       0.00175384       0.00004144       0.00207061 
Cu     13.47165275       4.48570175      10.51339338       29      -0.00021866       0.00109774       0.00133592 
Cu      6.44912481      16.00394155      10.04470502       29      -0.00022467      -0.00028352      -0.00030278 
Cu      4.16881817      12.22945597      10.47452883       29      -0.00011744      -0.00060146       0.00199892 
Cu      3.55550226       8.03157585      10.66186584       29       0.00127521      -0.00093998       0.00029320 
Cu      7.40641152      13.74864754       9.94292194       29       0.00160163      -0.00376445      -0.00067633 
Cu      5.21488650       9.92347119      10.36202798       29      -0.00335841      -0.00188333       0.00035559 
Cu      8.94427177      15.70617657       9.66433148       29      -0.00541240       0.00299993       0.00033158 
Cu      8.35953778      11.50644049       9.84218399       29      -0.00364324       0.00532266       0.00016117 
Cu      9.90282910      13.42777974       9.56245335       29      -0.00250837      -0.00333172       0.00347748 
Cu     11.47487030      15.31835583       9.28060526       29      -0.00044839       0.00328406       0.00120860 
Cu      4.65744757       3.74092383      10.58406398       29      -0.00082782      -0.00170616       0.00229105 
Cu      6.21781178       5.61112563      10.30163860       29       0.00086105      -0.00093189       0.00077655 
Cu      7.76957888       7.46925711      10.02064498       29       0.00165878      -0.00103749       0.00046743 
Cu      9.29791161       9.29791773       9.74225318       29      -0.00142828      -0.00234527       0.00048593 
Cu     10.82783983      11.12957262       9.46931649       29       0.00354008       0.00018204      -0.00351558 
Cu     12.38131685      12.98689612       9.18951599       29      -0.00057461      -0.00009481      -0.00242135 
Cu      7.12700228       3.27948232      10.21340348       29      -0.00015758      -0.00184162      -0.00216961 
Cu      8.69659940       5.17153225       9.92958228       29       0.00081327      -0.00205359      -0.00041373 
Cu     10.23822450       7.09318288       9.64791256       29      -0.00433925      -0.00297453      -0.00316221 
Cu      9.65727632       2.89270938       9.82920614       29      -0.00076658      -0.00022385       0.00062156 
Cu     13.38189168       8.67552474       9.12757804       29      -0.00300917      -0.00051213       0.00419639 
Cu     11.19028452       4.85260908       9.54748151       29       0.00085540       0.00052162       0.00380225 
Cu     15.04097470      10.56685515       8.83305992       29       0.00058111       0.00149535      -0.00353761 
Cu     12.14886823       2.59845701       9.44721447       29       0.00181591      -0.00310901       0.00118683 
Cu     14.42593133       6.36977018       9.01519652       29       0.00026713      -0.00165396       0.00352931 
Cu      5.12336468      14.11620149       8.98381989       29      -0.00001880       0.00232523      -0.00350987 
Cu      2.95865324      10.21307765       9.39190544       29      -0.00138811      -0.00000654      -0.00410093 
Cu      6.09807946      11.84163798       8.88326243       29       0.00616140       0.00171742       0.00197937 
Cu      3.91304438       5.82814686       9.34480268       29      -0.00029250       0.00394044       0.00204182 
Cu      7.10941252       9.57654479       8.80191927       29       0.00100448       0.00038305       0.00142605 
Cu      5.49393895       7.71242090       9.06528672       29      -0.00394428      -0.00337291       0.00138068 
Cu      6.35698477      10.78957754       2.56169984       29       0.00601263       0.00381098       0.00136444 
Cu      8.86662759      12.93014185       3.43105575       29      -0.00101823      -0.00128336       0.00016576 
Cu      8.57563905      10.43388046       3.48658595       29       0.00179357      -0.00265730      -0.00326421 
Cu     10.89758150      11.44130077       3.90378202       29       0.00000195       0.00230570      -0.00232511 
Cu     10.53900092       8.85971773       3.94292274       29       0.00006686       0.00030428      -0.00048035 
Cu      8.13171313       7.91990892       3.58971888       29       0.00299867       0.00150784      -0.00085039 
Cu     12.87303290       9.85617059       4.44119323       29       0.00067137       0.00071276       0.00195579 
Cu     10.13216599       6.32759573       4.13792865       29      -0.00073571      -0.00039122       0.00107189 
Cu     12.49453412       7.29216779       4.55556469       29       0.00014613      -0.00391044      -0.00064329 
Cu     14.77822602       8.29062816       5.04346178       29       0.00053535       0.00111826      -0.00022956 
Cu      4.67858006      11.10294781       5.65168177       29       0.00046263       0.00138478       0.00096230 
Cu      6.78123092      12.09799854       4.56463409       29      -0.00216862      -0.00261989      -0.00463276 
Cu     10.59789643      13.64728065       5.19969928       29      -0.00344584       0.00162204      -0.00069044 
Cu      6.37438382       9.48104755       4.60940735       29       0.00408936       0.00305608       0.00069946 
Cu     12.63404515      12.11143880       5.69600882       29      -0.00116746       0.00133748      -0.00328937 
Cu      6.03085969       6.93686104       4.76377446       29       0.00150157       0.00345290       0.00085217 
Cu     14.57228768      10.49653182       6.28679774       29      -0.00151296      -0.00473765      -0.00123848 
Cu      9.04058839      11.72951749       5.56887574       29      -0.00320630      -0.00136906       0.00248036 
Cu      9.24893529       4.39924046       5.63111888       29       0.00287839      -0.00147688       0.00059939 
Cu      6.71719869       4.77994925       6.01794115       29       0.00208867       0.00147151       0.00017250 
Cu      8.66605583       9.20600144       5.62680299       29      -0.00083019       0.00022972       0.00026093 
Cu      8.08143193      14.05027944       5.59593291       29       0.00175168       0.00113717      -0.00202538 
Cu     11.01337760      10.19338830       6.04006553       29       0.00008477       0.00046272       0.00110323 
Cu     11.63564165       5.31906029       5.99172333       29       0.00090690      -0.00078537       0.00145086 
Cu      8.28985726       6.68334181       5.75182290       29      -0.00131929      -0.00213261      -0.00253279 
Cu     10.63674829       7.63869070       6.15749326       29       0.00240877      -0.00072133       0.00206114 
Cu     12.93434744       8.63052802       6.62388542       29      -0.00127453       0.00233745      -0.00127391 
Cu      3.84730976      12.13468018       7.89856027       29      -0.00213690      -0.00039236       0.00189524 
Cu      4.91331873       6.33869108       7.01723651       29       0.00267652      -0.00067416      -0.00093280 
Cu     12.30482389      14.29001776       7.05102932       29       0.00075914       0.00256027      -0.00199014 
Cu      4.29366596       8.53698000       5.79511831       29       0.00152380       0.00014725      -0.00073364 
Cu     13.96383492       6.35288968       6.46777669       29      -0.00008741      -0.00174983      -0.00140469 
Cu     14.29000171      12.71343003       7.59199153       29      -0.00057292       0.00105289       0.00171200 
Cu      6.92798874      10.81902182       6.66899357       29      -0.00457630      -0.00097033       0.00179087 
Cu     10.73170748      12.40452969       7.34157655       29      -0.00056418      -0.00476419       0.00112192 
Cu      5.90685929      13.14712689       6.72398515       29       0.00157351      -0.00229027       0.00359781 
Cu      6.55352403       8.25077603       6.78673376       29      -0.00054398      -0.00026437      -0.00317228 
Cu      9.78339091      14.74985667       7.40632231       29      -0.00194464       0.00691748      -0.00118561 
Cu     12.70820840      10.83107285       7.87963790       29      -0.00251687       0.00199975       0.00201917 
Cu      8.17296650       3.75959476       7.89378950       29      -0.00080523      -0.00290216       0.00128302 
Cu     10.71595027       3.44922367       7.53029466       29       0.00036407      -0.00166037      -0.00191791 
Cu      9.75148649       5.72646245       7.63794663       29      -0.00455677      -0.00308475      -0.00214047 
Cu     12.10316807       6.70309581       8.06142668       29       0.00354065      -0.00118313       0.00010987 
Cu      9.17121119      10.50461605       7.67313578       29      -0.00042019       0.00077578      -0.00271096 
Cu      3.23685254       7.99496216       8.09196496       29       0.00004617      -0.00051702       0.00035189 
Cu      2.65525276      10.14759311       6.86820116       29       0.00181152      -0.00074912       0.00055315 
Cu      8.20682895      12.79134847       7.72510073       29      -0.00145938      -0.00114411       0.00005175 
Cu      8.80285143       8.00096371       7.77508073       29      -0.00189206       0.00115153       0.00562869 
Cu     11.10190820       8.96755242       8.19586640       29       0.00220453       0.00192698      -0.00637401 
Cu     15.24658947       8.33146715       7.53832199       29       0.00250970       0.00304277      -0.00303386 
Cu      7.24275326      15.06879864       7.82227958       29      -0.00120384       0.00152477       0.00198774 
Cu      5.65522279       4.21751323       8.29933349       29       0.00177382       0.00088234       0.00246857 
Cu     13.94289330      14.85613533       8.90902459       29       0.00070992      -0.00017713      -0.00160620 
Cu     13.07438830       4.42994174       7.95323096       29       0.00393830       0.00032545       0.00171024 
Cu      7.23246967       6.10628912       8.02192692       29      -0.00036484       0.00252605      -0.00104238 
Cu      4.88919086       9.86156898       7.83368757       29      -0.00534593       0.00096244      -0.00312602 
