147
Lattice="18.2248732114 0.0 0.0 0.0 18.2248732114 0.0 0.0 0.0 18.2248732114" Properties=species:S:1:pos:R:3:Z:I:1:forces:R:3 energy=-459.270675691 pbc="F F F"
Cu     13.24132979       9.37717744      14.02017679       29      -0.00382803       0.00054245       0.00043928 
Cu     12.41577857       7.40537847      15.38510288       29       0.00150678      -0.00024847       0.00124486 
Cu     10.94737618       9.46888982      15.24879884       29      -0.00185298      -0.00142904      -0.00263105 
Cu      8.95164662       5.24131966      13.60488799       29      -0.00079920       0.00276950       0.00209466 
Cu      9.89648575       7.08456557      15.15416948       29      -0.00048245      -0.00033998      -0.00180545 
Cu      8.38747139       9.19642248      15.00779467       29       0.00111870      -0.00018660       0.00146513 
Cu     10.43591843       3.56676446      14.64949888       29       0.00012101      -0.00118199       0.00038475 
Cu      6.41528989       5.01691934      13.22499107       29       0.00115550      -0.00138097      -0.00192545 
Cu      7.34788278       6.83924846      14.82669376       29      -0.00033782      -0.00012032       0.00092758 
Cu      5.84668402       8.93820382      14.60300919       29       0.00037969       0.00014496       0.00414337 
Cu     13.59626759       6.94055009      13.17215364       29      -0.00121806       0.00048597       0.00033676 
Cu     11.53181086       5.60658097      13.86232136       29      -0.00046238       0.00043704       0.00110509 
Cu     11.76556413      11.50178643      13.86907649       29      -0.00101172       0.00061100       0.00112290 
Cu     12.65761160       3.47194189      13.45291595       29       0.00019680       0.00541754      -0.00091740 
Cu      9.44802644      11.55396016      15.02126629       29       0.00338727      -0.00114101      -0.00272052 
Cu     11.30343422       7.99470861      13.26854201       29      -0.00168005       0.00328603       0.00500906 
Cu      6.89126064      11.28283782      14.70264152       29      -0.00171929      -0.00578729       0.00038926 
Cu      5.81604870      10.85611742       2.83977034       29       0.00124560      -0.00089976      -0.00056337 
Cu      8.32866039      11.14524788       3.06753069       29       0.00229924      -0.00239377      -0.00211537 
Cu     10.88515376      11.40788459       3.37900839       29       0.00103830      -0.00270200       0.00090829 
Cu      7.27550253       8.78146843       2.96712762       29      -0.00270227      -0.00150250       0.00073369 
Cu      9.84072996       9.04446588       3.20236537       29      -0.00016253      -0.00223029      -0.00216084 
Cu     13.38466275      11.63433010       3.76408665       29       0.00153354       0.00094642      -0.00202514 
Cu     12.38690070       9.30638817       3.59121745       29       0.00160143       0.00003242      -0.00064093 
Cu      8.77584759       6.68239940       3.17959638       29       0.00029480      -0.00132821      -0.00122877 
Cu     11.33315097       6.94483429       3.49155433       29       0.00035813      -0.00128181       0.00042540 
Cu      6.69954568      12.69466749       4.35154479       29       0.00168112      -0.00025132      -0.00142408 
Cu      9.25973543      13.00975506       4.60399947       29       0.00066910      -0.00156709       0.00085593 
Cu     10.26181108       4.64288875       3.46807170       29       0.00308482       0.00107070       0.00004616 
Cu     11.81541706      13.22109505       4.97567519       29      -0.00222058      -0.00215411       0.00112572 
Cu      4.99394508       8.86982305       4.19072666       29      -0.00059479      -0.00124014      -0.00130604 
Cu      6.46118596       6.73962870       4.33935473       29       0.00124847      -0.00243709      -0.00136675 
Cu      6.92482866      10.27240477       4.94803357       29      -0.00078803      -0.00074861      -0.00162465 
Cu      4.63803433      11.28933912       5.04674085       29       0.00185557      -0.00213617      -0.00169565 
Cu      9.44068608      10.55229114       5.19764878       29       0.00510264      -0.00068716      -0.00086432 
Cu     14.24318328       9.82125474       5.32167862       29       0.00270263       0.00173924      -0.00018374 
Cu      7.62919162      14.50821915       5.94689004       29       0.00075894      -0.00057284       0.00144923 
Cu     11.94725846      10.78833657       5.56128970       29      -0.00455658       0.00151024      -0.00004576 
Cu      8.39012285       8.19694108       5.09817301       29      -0.00151037       0.00140074       0.00026900 
Cu     13.24333681       7.43706392       5.16982920       29      -0.00047224       0.00151551       0.00129655 
Cu      7.99778588       4.67029341       4.61483802       29       0.00044478       0.00059632       0.00140605 
Cu     10.18749779      14.77166035       6.25978053       29      -0.00015833      -0.00259682      -0.00141156 
Cu     10.93813403       8.45852385       5.40919912       29      -0.00010034       0.00331894       0.00463813 
Cu     13.89056701      12.24279453       6.17608624       29       0.00222284      -0.00021210      -0.00157488 
Cu     12.13433926       5.09661874       5.12408616       29      -0.00044902       0.00120987      -0.00161517 
Cu      9.87530427       6.14849367       5.36471763       29       0.00151838      -0.00148638      -0.00308666 
Cu      7.81841260      12.09813200       6.47675112       29      -0.00033633      -0.00325390       0.00214628 
Cu      4.21658235       6.85878553       5.62515760       29      -0.00068262       0.00637163      -0.00514393 
Cu      5.52079104      13.15665213       6.60976354       29      -0.00016081      -0.00140124       0.00188856 
Cu     10.36705358      12.35976314       6.78845446       29      -0.00087697      -0.00075970      -0.00323487 
Cu      6.11783663       8.28508570       6.31629140       29      -0.00139755       0.00355677       0.00154184 
Cu      8.56598333      16.22519549       7.56497019       29      -0.00110867       0.00261512       0.00185149 
Cu     10.07481340       3.69013579       5.81405370       29       0.00089480       0.00428623       0.00057288 
Cu      5.71921258       4.75912313       5.83759896       29       0.00052687       0.00128949       0.00023557 
Cu      3.79115077       9.28081671       6.44653902       29       0.00158777      -0.00109117      -0.00253599 
Cu     12.30439982      13.85638800       7.43833280       29       0.00222736       0.00019453      -0.00055949 
Cu     15.04471770       7.97631930       6.95140901       29       0.00003556       0.00105996       0.00016258 
Cu      8.02717769       9.69177333       7.04394018       29      -0.00130277      -0.00252652       0.00093598 
Cu      7.61444005       6.19277100       6.52717748       29      -0.00201380       0.00215447       0.00343364 
Cu     12.78804822       8.97225488       7.13492882       29      -0.00100909      -0.00031255      -0.00282146 
Cu      5.76342768      10.69626386       7.16994696       29       0.00460568       0.00092060       0.00009297 
Cu      3.50788293      11.69889941       7.33750284       29      -0.00313737      -0.00294855       0.00049906 
Cu     10.51841211       9.94717741       7.34922749       29      -0.00204003      -0.00251575      -0.00300052 
Cu     13.99075308       5.61330806       6.85200890       29       0.00223365       0.00178436       0.00075502 
Cu     11.73713259       6.61791096       7.03513947       29       0.00197461       0.00100779      -0.00017288 
Cu      8.74976952      13.83577326       8.08397078       29      -0.00222710      -0.00437723      -0.00087019 
Cu     14.76658275      10.41417907       7.78742963       29       0.00042511      -0.00094980       0.00097045 
Cu      9.49062018       7.64582827       7.25157217       29       0.00066295       0.00094494      -0.00110782 
Cu      6.49677771      14.91711282       8.24000932       29      -0.00141587      -0.00202977      -0.00175453 
Cu     12.43559390      11.38521590       7.98440136       29       0.00203629       0.00001781       0.00260793 
Cu     10.63497122      15.34591557       8.74457279       29      -0.00075986      -0.00068041      -0.00001530 
Cu      7.77760601       3.70852895       7.01159576       29       0.00064799       0.00083802      -0.00036078 
Cu      3.51438436       4.90714069       7.08814688       29      -0.00486586      -0.00238929       0.00077131 
Cu     14.33834127      12.81726780       8.65905133       29       0.00071973       0.00007211      -0.00182761 
Cu     11.96986727       4.14103326       7.52876503       29      -0.00201409       0.00020906      -0.00117021 
Cu      8.93186759      11.45942966       8.59975128       29      -0.00060858      -0.00439101       0.00200434 
Cu      9.68354150       5.21780689       7.71983562       29      -0.00076329       0.00176493      -0.00211732 
Cu      5.39628885       6.32397080       7.76640220       29       0.00802433       0.00179418       0.00438153 
Cu      6.68961331      12.50430128       8.76050266       29      -0.00058693       0.00056350      -0.00017681 
Cu      3.08328053       7.26895533       7.91666135       29      -0.00159985      -0.00146103       0.00060660 
Cu      4.43627867      13.51209937       8.93538828       29      -0.00333072      -0.00154650      -0.00148171 
Cu     10.81262508      12.93192037       9.26429628       29       0.00251273       0.00211671       0.00164332 
Cu      7.26913169       7.73253863       8.44248513       29      -0.00488228      -0.00270255       0.00172018 
Cu      4.98894705       8.69327811       8.59998096       29       0.00023795      -0.00214991       0.00108426 
Cu     15.75973425       6.17181661       8.58731970       29       0.00038877       0.00230583      -0.00090023 
Cu      2.72923411       9.68768470       8.77154065       29       0.00029566      -0.00274197       0.00191481 
Cu     13.52193833       7.15988915       8.76642753       29       0.00353018      -0.00040516       0.00033770 
Cu     11.30014714       8.14698575       8.93948435       29      -0.00155479      -0.00283906       0.00011939 
Cu     12.70891299      14.37030152       9.94419182       29       0.00206636      -0.00263674      -0.00046184 
Cu      8.35368383      15.43330527       9.96899116       29      -0.00088586      -0.00096505       0.00127825 
Cu      9.10977763       9.11975716       9.11224532       29      -0.00136245       0.00228443      -0.00274957 
Cu      9.87517414       2.80046279       8.23563439       29       0.00010878      -0.00022299      -0.00209888 
Cu      5.51263795       3.86880578       8.25973768       29       0.00149213       0.00245820       0.00254424 
Cu      6.92393277      10.08898078       9.27819341       29      -0.00107079      -0.00134839      -0.00112408 
Cu      4.70174351      11.07473420       9.44928857       29      -0.00115693      -0.00273411       0.00113046 
Cu     15.49485758       8.55217702       9.43445532       29      -0.00045735       0.00052846       0.00091110 
Cu      2.46513896      12.06537279       9.62286492       29      -0.00035135      -0.00158835       0.00104510 
Cu     13.23538740       9.54514454       9.60973858       29      -0.00140572       0.00389977       0.00002971 
Cu     10.95418646      10.50742445       9.76958462       29       0.00291134       0.00199218      -0.00064983 
Cu      7.40748483       5.30657639       8.93962021       29      -0.00523458       0.00325208      -0.00075140 
Cu     13.79353723       4.72174970       9.27464305       29      -0.00314090       0.00195283      -0.00102625 
Cu     15.13960639      10.97077514      10.28924797       29       0.00124056       0.00384932       0.00184562 
Cu     11.53239328       5.72811411       9.44917560       29       0.00267456      -0.00447589      -0.00365411 
Cu     12.82639611      11.91803950      10.43971162       29      -0.00190268      -0.00233495      -0.00046442 
Cu      8.53982838      13.01820210      10.48520654       29      -0.00107314      -0.00130627      -0.00249709 
Cu      9.29075857       6.77856241       9.61164619       29       0.00024194      -0.00062468       0.00172581 
Cu      6.25421415      14.09329514      10.68213416       29      -0.00078639       0.00109982       0.00126192 
Cu      3.88936631       5.42047411       9.54702164       29      -0.00171912       0.00043260       0.00077694 
Cu     14.70861055      13.33572637      11.11593950       29       0.00425385      -0.00106122       0.00140554 
Cu     10.44685162      14.52903862      11.19434344       29       0.00304634      -0.00047907      -0.00111035 
Cu      7.58409331       2.88951170       9.46356113       29      -0.00124854       0.00064928      -0.00150734 
Cu      5.79194506       6.85216951      10.22562444       29       0.00096509       0.00108414       0.00066425 
Cu     11.73999619       3.31141699       9.98368811       29      -0.00084037       0.00476430      -0.00118129 
Cu      8.72996036      10.60053123      10.96956330       29      -0.00227209       0.00355014       0.00029150 
Cu      3.45805740       7.82129932      10.41635630       29      -0.00049546       0.00335305      -0.00124719 
Cu      9.46401230       4.39867677      10.10649733       29      -0.00048662       0.00410897      -0.00018494 
Cu      6.48773788      11.61907019      11.17668925       29      -0.00091320      -0.00195668      -0.00016878 
Cu      4.23064036      12.62265808      11.35896052       29       0.00269108      -0.00152986      -0.00103825 
Cu      7.70166748       8.28341037      10.87384510       29      -0.00364162       0.00119192       0.00356560 
Cu     14.72512541       6.54491999      10.87555508       29       0.00121606      -0.00174929      -0.00170607 
Cu     12.46345678       7.54730136      11.04824528       29      -0.00012358       0.00287196       0.00095126 
Cu      5.43919520       9.25869949      11.07664543       29       0.00008182       0.00207092       0.00131948 
Cu     10.60519492      12.04709603      11.67955258       29       0.00463958      -0.00135252      -0.00125372 
Cu     10.19728347       8.55232657      11.17179265       29       0.00065040       0.00007010      -0.00196820 
Cu      3.17856671      10.25500051      11.25661929       29       0.00053244       0.00106943       0.00112026 
Cu      5.92309440       4.37710777      10.76897152       29       0.00252205       0.00214932      -0.00091177 
Cu     14.43622403       8.96037260      11.76474559       29      -0.00300037      -0.00070906       0.00153665 
Cu     12.50287187      13.47967146      12.36787597       29       0.00261340       0.00070755       0.00151481 
Cu      8.15123866      14.53813841      12.37926310       29      -0.00251667       0.00376932      -0.00025257 
Cu      9.65184457       1.99967772      10.63229352       29       0.00025667      -0.00112338      -0.00052301 
Cu     12.11060188       9.96184071      11.89302297       29      -0.00151703      -0.00138511      -0.00363420 
Cu      7.85689187       5.87444739      11.41926970       29      -0.00043626       0.00213157      -0.00391239 
Cu     12.71635352       5.09241280      11.58775435       29      -0.00376802       0.00145457       0.00036689 
Cu     14.01141033      11.38527623      12.58198267       29       0.00290545      -0.00137792       0.00170637 
Cu     10.40751520       6.14616641      11.73318374       29      -0.00176549      -0.00175732      -0.00129301 
Cu      8.33910295      12.11711376      12.87393596       29       0.00341926      -0.00218805       0.00274754 
Cu      6.08617968      13.13131383      13.07414309       29      -0.00063076       0.00206542       0.00132426 
Cu      4.34347746       5.99601499      12.01844296       29       0.00088105       0.00230199       0.00094536 
Cu      7.28790877       9.77805237      12.79603716       29       0.00015696       0.00119368       0.00191768 
Cu      8.04139924       3.45846976      11.96645431       29      -0.00393624       0.00068950      -0.00238397 
Cu     10.22880858      13.55989088      13.58101481       29       0.00009147       0.00038969      -0.00119984 
Cu      4.97814001      10.79672688      13.03418155       29       0.00187222       0.00256467       0.00186942 
Cu      9.83138120      10.05360915      13.11195501       29       0.00011285      -0.00409289       0.00134859 
Cu      6.25802020       7.43101561      12.67846202       29      -0.00116735      -0.00094470       0.00155886 
Cu     10.56747019       3.73229084      12.21240922       29       0.00313589      -0.00662956      -0.00143384 
Cu      3.98927725       8.41492143      12.87352916       29      -0.00146336       0.00182112       0.00230536 
Cu      8.78626853       7.69229267      13.01648194       29      -0.00132110      -0.00038425       0.00147009 
