147
Lattice="18.0397703466 0.0 0.0 0.0 18.0397703466 0.0 0.0 0.0 18.0397703466" Properties=species:S:1:pos:R:3:Z:I:1:forces:R:3 energy=-459.761044523 pbc="F F F"
Cu      9.36488244       8.81426347      15.42087942       29       0.00134035      -0.00050931       0.00218521 
Cu      7.02073101       9.85462033      15.05684017       29       0.00027570      -0.00205665       0.00106908 
Cu      7.42243598       7.35737882      14.50156074       29       0.00033647       0.00116832       0.00144085 
Cu      8.94158808      11.25668448      15.95806942       29      -0.00124396       0.00041894      -0.00117528 
Cu     11.58543950       8.11605394      14.31425781       29      -0.00087788      -0.00365167       0.00125364 
Cu     11.15714904      10.63170556      14.87020456       29       0.00030112      -0.00035857       0.00065209 
Cu      5.10431805       8.41920885      14.06372270       29       0.00073772       0.00089440       0.00214810 
Cu      5.53409213       5.94195860      13.43311032       29      -0.00112356       0.00113882       0.00289130 
Cu      7.34278251      12.29772044      14.27587273       29       0.00013492       0.00159139       0.00154066 
Cu      7.86804216       4.91120745      13.78967709       29       0.00054911      -0.00094336       0.00005945 
Cu      8.97065220      10.50688226      13.62590926       29      -0.00095739      -0.00014587      -0.00269061 
Cu      8.28335517      13.85039803      12.42618984       29       0.00479240       0.00043565       0.00002139 
Cu      9.77919191       6.34314459      14.78775008       29      -0.00022623       0.00162087       0.00020671 
Cu      9.88215703      12.77761978      14.15936487       29       0.00186242      -0.00015262      -0.00076534 
Cu      3.51624831       9.43146918      12.28623298       29      -0.00351702      -0.00124874      -0.00042415 
Cu      3.26995621       7.01174903      13.01513927       29      -0.00306251      -0.00325397       0.00158199 
Cu     11.99013367       5.66840180      13.60284971       29      -0.00289556       0.00008842      -0.00260898 
Cu     13.31575407       9.89105095      13.69567954       29       0.00154757      -0.00229188       0.00125728 
Cu      5.37829623      10.88990580      13.33805728       29       0.00579191      -0.00033725       0.00340026 
Cu     14.28391535      12.08655203      14.06916737       29       0.00244436      -0.00079758       0.00010663 
Cu      9.11791752       6.79679714       2.08170092       29      -0.00117177      -0.00106253       0.00357724 
Cu     11.03314180       8.19843487       2.98153356       29      -0.00082026       0.00082777       0.00053537 
Cu      8.68854043       9.24156566       2.61725471       29       0.00089738       0.00043027       0.00169598 
Cu     10.70801209       5.75243011       3.76598947       29      -0.00018473      -0.00481326      -0.00300849 
Cu      6.91596219       7.43679917       3.17439481       29       0.00310163      -0.00028611      -0.00404921 
Cu     10.62354398      10.69500206       3.53942729       29      -0.00180522      -0.00026025      -0.00033042 
Cu     12.94591993       9.62836610       3.97458220       29      -0.00049105       0.00115704       0.00108469 
Cu      8.25945051      11.71711188       3.24855957       29       0.00162363      -0.00583205      -0.00260129 
Cu      8.16479893       5.28046966       3.88171799       29      -0.00156870       0.00011502      -0.00034688 
Cu     12.66943204       7.15794291       4.70273943       29       0.00038164       0.00001690       0.00050575 
Cu      6.45251884       9.92407968       3.73329414       29       0.00136793      -0.00151635       0.00029403 
Cu      9.08757361       7.54630233       4.41693100       29      -0.00124080      -0.00470292      -0.00651254 
Cu     12.51513815      12.10427136       4.60490415       29      -0.00035875      -0.00010237      -0.00311448 
Cu     10.17347467      13.14921012       4.24349844       29       0.00369926      -0.00217849      -0.00357208 
Cu     14.78104651      11.03316857       5.02093598       29       0.00144245       0.00024222       0.00223580 
Cu      7.84705662      14.12380526       3.94746815       29      -0.00014602      -0.00299280      -0.00459757 
Cu     12.29465277       4.73627642       5.54457525       29       0.00430488      -0.00118010      -0.00424923 
Cu      4.71472889       8.10715664       4.35869451       29       0.00001627      -0.00129298      -0.00131587 
Cu     14.53532814       8.61276176       5.75262601       29       0.00076459       0.00143657      -0.00201636 
Cu      6.05672752      12.38746638       4.43314902       29      -0.00005053      -0.00117321      -0.00093363 
Cu     10.99598669       8.95083675       5.33893802       29      -0.00000771      -0.00103577       0.00037372 
Cu      8.65926678       9.99023577       4.97602531       29       0.00045134       0.00201092      -0.00222149 
Cu      9.76186832       4.20189464       5.61362510       29       0.00219045       0.00012056      -0.00065305 
Cu      5.92056629       5.90931887       5.01399086       29       0.00181928       0.00080549      -0.00084727 
Cu      7.20957084       3.79457877       5.77371151       29      -0.00047429      -0.00025892       0.00277741 
Cu     14.21067506       6.16698161       6.53779896       29      -0.00003948       0.00166287      -0.00331706 
Cu      4.28395401      10.58189992       4.98836278       29       0.00098541       0.00107875      -0.00106945 
Cu     10.67168608       6.51196630       6.12018136       29       0.00118635       0.00171858       0.00431243 
Cu      6.89323269       8.19159759       5.53020956       29      -0.00373464       0.00189867      -0.00303222 
Cu     10.56660752      11.41744457       5.96669407       29      -0.00101276       0.00038206      -0.00095524 
Cu     12.84693261      10.35753017       6.36868730       29       0.00083540       0.00165313      -0.00118278 
Cu      8.24268726      12.40821431       5.65427846       29       0.00269001      -0.00648773       0.00330510 
Cu      8.13645564       6.04248909       6.23572401       29      -0.00044658      -0.00103343      -0.00082126 
Cu     11.53216626      13.72683666       6.37129171       29      -0.00100075       0.00141060      -0.00159992 
Cu     13.81957015       3.79221707       7.34510791       29       0.00226971       0.00103969      -0.00243465 
Cu     13.84097339      12.62269060       6.76276926       29      -0.00067556      -0.00122486       0.00234607 
Cu      2.59820698       8.77969783       5.59016720       29       0.00075437      -0.00065328      -0.00239986 
Cu      9.15595859      14.70780960       6.04277548       29       0.00077215       0.00077061      -0.00007109 
Cu     12.58054612       7.93889385       7.11103412       29      -0.00383719      -0.00244242       0.00305893 
Cu      6.46358243      10.65878401       6.15696453       29       0.00348490      -0.00020082       0.00127476 
Cu      9.05735835       8.28965689       6.73723580       29      -0.00078872       0.00017447       0.00241862 
Cu     11.34080430       3.25050010       7.43679896       29       0.00243594      -0.00010593      -0.00167745 
Cu      3.75908922       6.61984756       6.25183902       29      -0.00125515       0.00051939       0.00041600 
Cu     15.08953386      10.46027085       7.47599929       29      -0.00059559       0.00093006       0.00054036 
Cu      6.60888873      14.23785984       6.15890441       29      -0.00023616      -0.00225481       0.00258707 
Cu      8.79863895       2.77980247       7.55120735       29      -0.00053955       0.00080090       0.00105446 
Cu      5.00728377       4.46477128       6.96058258       29      -0.00270696       0.00095151      -0.00130700 
Cu     12.20935374       5.55219083       7.90998718       29      -0.00336980       0.00303110       0.00049734 
Cu      4.75977288       8.86130644       6.74527283       29      -0.00052633       0.00258919      -0.00392668 
Cu     14.84174717       7.99913790       8.25324710       29      -0.00370648      -0.00034954      -0.00102857 
Cu      4.77944795      12.47722518       6.68373496       29       0.00257083      -0.00041117      -0.00251242 
Cu     10.92300345       9.68483474       7.70630304       29      -0.00039935       0.00052877       0.00101796 
Cu      8.63763914      10.70144173       7.35106856       29      -0.00128041       0.00171323      -0.00757864 
Cu      6.29343134       2.39880234       7.68721328       29      -0.00478708      -0.00110810       0.00001684 
Cu      9.72072636       5.03129489       8.00670764       29      -0.00274626       0.00188094      -0.00066077 
Cu      5.94081343       6.71046986       7.41673339       29       0.00062155       0.00021999       0.00244570 
Cu     11.88641794      11.93161847       8.11847459       29      -0.00116162       0.00059283       0.00351514 
Cu      9.55223564      12.97204981       7.76101824       29      -0.00066831      -0.00030156      -0.00199730 
Cu      7.21211883       4.62699408       8.13608873       29       0.00083883       0.00092690       0.00033165 
Cu     14.44133148       5.57096325       9.05008220       29      -0.00085546       0.00147777       0.00098502 
Cu      3.06211289      10.62543540       7.27004693       29      -0.00007260       0.00293455      -0.00009332 
Cu     10.60631488       7.30026476       8.47071364       29       0.00411678      -0.00305085      -0.00503240 
Cu      6.90905793       8.94333512       7.89222031       29       0.00674385       0.00013987       0.00231617 
Cu     13.13239028       9.78038845       8.83136538       29       0.00195269       0.00049487       0.00157890 
Cu      7.01435024      12.50282188       7.87728297       29       0.00068122      -0.00029556      -0.00626189 
Cu     12.82618970      14.17535484       8.57593582       29      -0.00079923      -0.00056910       0.00324465 
Cu     10.48315697      15.21978774       8.20791512       29       0.00018029      -0.00038767       0.00262276 
Cu      8.12675230       6.84131504       8.58331734       29      -0.00410037       0.00044410      -0.00308372 
Cu     12.66354833       3.76815023       9.60427151       29      -0.00376481      -0.00107242      -0.00009497 
Cu      2.73523669       8.17677992       8.05230700       29       0.00299424       0.00202618      -0.00126905 
Cu     14.13727582      12.06469923       9.26514326       29      -0.00083661      -0.00088509      -0.00037298 
Cu      7.91964043      14.83000182       8.31226128       29      -0.00010393      -0.00091485       0.00096191 
Cu     12.80954199       7.34209455       9.61427778       29       0.00046436       0.00169163      -0.00143906 
Cu      9.02736220       9.02014426       9.02348430       29      -0.00746222       0.00440942       0.00232334 
Cu      5.24638793      10.70316541       8.43073581       29       0.00028401       0.00085435       0.00062654 
Cu     10.13405579       3.22070003       9.72572796       29      -0.00088596       0.00067847       0.00159478 
Cu      3.91679015       5.98216845       8.75693908       29       0.00067160      -0.00052996      -0.00164171 
Cu     15.32367367       9.85241593       9.98365429       29       0.00004450       0.00258899      -0.00132978 
Cu      5.38817915      14.28162316       8.43953326       29       0.00224393       0.00032709      -0.00237920 
Cu      9.92706329      11.20421522       9.45630214       29      -0.00042513      -0.00294646       0.00675459 
Cu      7.57695617       2.82667129       9.83597398       29      -0.00097400      -0.00081357      -0.00175080 
Cu      5.23261814       3.86624455       9.46852386       29      -0.00186427      -0.00035119       0.00031506 
Cu     11.03583924       5.54790641      10.16832582       29       0.00058784      -0.00162708      -0.00205904 
Cu      4.92095809       8.26278379       9.21039402       29       0.00337703       0.00190545       0.00036682 
Cu     11.14315255       9.09902926      10.15189285       29       0.00076799       0.00539336      -0.00233892 
Cu      7.44761360      10.74634297       9.57380417       29       0.00137020      -0.00688803       0.00073862 
Cu     14.99476774       7.42685799      10.78499946       29      -0.00207497      -0.00073558      -0.00222023 
Cu      3.61378924      12.47624435       8.99380696       29       0.00159579      -0.00113961       0.00489955 
Cu     10.85038910      13.41716159       9.90882214       29      -0.00076165      -0.00071356       0.00050819 
Cu      8.50286024       5.07890311      10.28226268       29      -0.00010277      -0.00130103       0.00460496 
Cu      6.16540093       6.11399872       9.91580953       29       0.00039253       0.00154524      -0.00017261 
Cu     12.11080356      11.33394360      10.61562535       29      -0.00648495      -0.00323499      -0.00119415 
Cu      8.33331835      13.01756221      10.03162877       29      -0.00144877       0.00086877       0.00082023 
Cu     11.77412926      15.64096800      10.35759709       29      -0.00372171       0.00118902       0.00157517 
Cu      9.41609659       7.33696079      10.70104811       29       0.00161087      -0.00052655       0.00505792 
Cu      7.13010775       8.35882292      10.33584858       29       0.00034436       0.00634182      -0.00346389 
Cu     13.27339268       5.56961915      11.35854896       29       0.00020433      -0.00070437      -0.00129228 
Cu      3.21111653      10.04141862       9.78727359       29       0.00251156       0.00070890       0.00109951 
Cu     13.29211302       9.18095530      11.30019920       29       0.00194309       0.00109287      -0.00041081 
Cu      5.84434360      12.49513259      10.13389210       29      -0.00329353       0.00391200       0.00395552 
Cu     13.06129812      13.57524175      11.10604194       29      -0.00238746       0.00383502       0.00146354 
Cu      9.26007127      15.26559625      10.48596626       29      -0.00006165      -0.00028155       0.00139269 
Cu     11.43904072       3.82193533      11.87246701       29      -0.00102316       0.00036948       0.00151619 
Cu      2.96265791       7.58134906      10.56079801       29       0.00090789      -0.00145754      -0.00294564 
Cu     14.30798102      11.42306207      11.73385198       29      -0.00077688       0.00121336      -0.00108258 
Cu      6.71216967      14.79744885      10.60347005       29      -0.00240606      -0.00031996      -0.00021860 
Cu      8.99213520       9.75649588      11.30472202       29       0.00279738       0.00325047       0.00071353 
Cu     11.58555053       7.38561683      11.88884764       29      -0.00167703       0.00195714      -0.00188516 
Cu      5.47193420      10.10680736      10.92965104       29       0.00215275      -0.00135000       0.00144989 
Cu      8.89239533       3.35151616      11.98968642       29       0.00049785      -0.00092703      -0.00141747 
Cu     15.44156336       9.30974740      12.48552344       29      -0.00061548       0.00093833       0.00188475 
Cu      4.21053726       5.42488819      11.26821876       29      -0.00021471       0.00003210       0.00017980 
Cu      4.23172339      14.25474769      10.69818356       29       0.00182560      -0.00155799       0.00183880 
Cu      6.51938243       4.32240202      11.66713095       29      -0.00056242      -0.00017270       0.00055446 
Cu      9.90087484      12.00891274      11.79904358       29      -0.00226074      -0.00074994       0.00222789 
Cu      9.81168154       5.61307575      12.41857819       29       0.00513382       0.00283370       0.00079678 
Cu      5.20547678       7.68750044      11.67099897       29      -0.00035252       0.00181047      -0.00081160 
Cu      7.48478016       6.63033094      12.07295561       29       0.00155521      -0.00410233       0.00403103 
Cu     11.15088692       9.85035612      12.51202654       29       0.00123019       0.00172032      -0.00135238 
Cu      7.37679699      11.53649708      11.92306500       29      -0.00067103      -0.00209192       0.00006923 
Cu     13.77168047       7.45102916      13.05450123       29       0.00074462       0.00137513      -0.00136247 
Cu      3.84054573      11.87776742      11.50306359       29      -0.00044209      -0.00102290      -0.00138601 
Cu     10.84040332      14.25825466      12.26760301       29      -0.00210075      -0.00079777       0.00046069 
Cu     12.09646803      12.13354129      13.00558128       29       0.00045953       0.00315287       0.00095346 
Cu      5.75261700      13.31167441      12.49929429       29       0.00009818       0.00310493       0.00114021 
Cu      9.38543740       8.05589296      13.06407698       29       0.00225530      -0.00439576       0.00032261 
Cu      7.05508897       9.09937530      12.70150095       29      -0.00303801       0.00131218       0.00599048 
