147
Lattice="19.284145177 0.0 0.0 0.0 19.284145177 0.0 0.0 0.0 19.284145177" Properties=species:S:1:pos:R:3:Z:I:1:forces:R:3 energy=-459.761033379 pbc="F F F"
Cu     10.98266617       8.53377188      16.32437308       29       0.00324410       0.00253870      -0.00149545 
Cu      9.65946564      10.22960536      15.09146642       29      -0.00001161       0.00088525       0.00166200 
Cu     13.11346721       9.14620075      14.99006942       29      -0.00216991       0.00032717       0.00080106 
Cu      9.69595651       6.62548859      15.16347483       29       0.00124074       0.00171294       0.00090674 
Cu     11.75280310      11.00221446      16.17342554       29       0.00182431      -0.00209602      -0.00262855 
Cu      8.38445664       8.50617727      16.33841559       29       0.00256702       0.00187089      -0.00178151 
Cu      9.63830216      12.49967869      16.09125486       29      -0.00114354      -0.00227418      -0.00399772 
Cu      8.38472020       8.36778461      13.88085016       29       0.00152040       0.00036547      -0.00318006 
Cu      7.55808843      10.95659831      16.19226100       29       0.00298067      -0.00159726      -0.00214972 
Cu      7.50137533      13.11642774      14.77468335       29       0.00048421      -0.00062005      -0.00262161 
Cu     10.96805293       8.39314825      13.86870774       29      -0.00138200      -0.00185288      -0.00287637 
Cu     12.30527940       6.69634262      15.08381338       29      -0.00156528       0.00201771      -0.00112841 
Cu     13.83130364      11.62235660      14.78056604       29       0.00344654       0.00143409       0.00018722 
Cu     11.00597003       4.85453311      13.86825218       29       0.00268448       0.00083110      -0.00083938 
Cu     11.74836332      13.16245471      14.75584361       29       0.00114066      -0.00057663      -0.00075680 
Cu      6.23556929       9.06586908      15.02363450       29       0.00016690       0.00023495      -0.00086933 
Cu      7.11877684       6.62398215      15.10118035       29       0.00238155       0.00150930      -0.00007448 
Cu      9.60879627      14.61393584      14.61434921       29      -0.00273704       0.00059371       0.00185968 
Cu      5.45444578      11.52903300      14.81862298       29       0.00076613      -0.00289628      -0.00117556 
Cu     11.73273505      10.84954239      13.71872448       29       0.00053667      -0.00144851       0.00111720 
Cu      9.60898516       9.50699843       2.94572959       29      -0.00015121       0.00039711      -0.00209989 
Cu      8.29783643      11.34507225       4.10624295       29       0.00057302       0.00124418       0.00005292 
Cu      7.52709053       8.87718917       4.25569223       29      -0.00025967      -0.00188699       0.00364587 
Cu     10.88762654      11.37691790       4.09401613       29       0.00011119      -0.00112248       0.00111515 
Cu      9.63984981       7.38183844       4.33469215       29       0.00002661      -0.00073479       0.00313977 
Cu     11.71754795       8.92766778       4.23474675       29      -0.00007813       0.00011721      -0.00081967 
Cu      9.61964230       9.65180202       5.39367960       29      -0.00020799      -0.00123861      -0.00129276 
Cu      6.17215210      10.73091070       5.45312507       29      -0.00147960       0.00104191      -0.00044794 
Cu      9.57647025      13.26395471       5.28825629       29       0.00082883      -0.00161444      -0.00003022 
Cu      6.98833309      13.18829966       5.36506774       29       0.00106349       0.00010838      -0.00065005 
Cu     13.04137866      10.81470880       5.41943935       29       0.00125394       0.00274722      -0.00107999 
Cu      7.53109813       6.71559044       5.68440165       29       0.00083460       0.00059780      -0.00138308 
Cu      5.44698441       8.25278728       5.66619861       29      -0.00047914       0.00197044       0.00019960 
Cu     12.16665579      13.25091573       5.34154127       29       0.00132543       0.00050620      -0.00132883 
Cu     11.77682407       6.76697925       5.66099031       29       0.00115730       0.00003111      -0.00069135 
Cu     13.82642298       8.35733912       5.62052702       29       0.00213076       0.00010805       0.00125650 
Cu      9.67253853       5.26323566       5.82651847       29       0.00259898       0.00057564       0.00121742 
Cu      8.31368259      11.48537717       6.57700548       29       0.00076449       0.00125874       0.00009798 
Cu      7.54548939       9.02575568       6.72664319       29       0.00180053       0.00036666      -0.00133365 
Cu     10.89473174      11.51656557       6.56520637       29      -0.00095487       0.00055926      -0.00093553 
Cu      9.65044351       7.53537190       6.80481277       29       0.00271241       0.00102521       0.00055286 
Cu     11.72191781       9.07617079       6.70513974       29      -0.00073537       0.00251283       0.00051569 
Cu      8.26822042      15.06414890       6.61207862       29       0.00065570       0.00033686      -0.00062749 
Cu      4.90787599      12.56466954       6.77478087       29       0.00004523      -0.00132294       0.00253176 
Cu      4.13698222      10.09816611       6.92617927       29      -0.00044813       0.00022431      -0.00129563 
Cu     10.85695587      15.09506632       6.60003368       29       0.00181687       0.00014769       0.00063553 
Cu      5.73154881      14.96436334       6.67290756       29      -0.00111711       0.00201240      -0.00095672 
Cu     14.27666986      12.67742374       6.73076475       29       0.00159404      -0.00011627      -0.00127360 
Cu      5.47748102       6.13477937       7.15497860       29       0.00183283      -0.00003410       0.00097577 
Cu      3.44881331       7.66184959       7.11941046       29       0.00336996      -0.00086034       0.00013622 
Cu     13.39638305      15.05586776       6.63809780       29      -0.00125566       0.00126273      -0.00165010 
Cu     15.10709369      10.23170144       6.87013928       29       0.00097951      -0.00003887      -0.00101859 
Cu      7.59282504       4.64070945       7.23502593       29       0.00106354       0.00094525       0.00183935 
Cu     13.86147178       6.24115069       7.10257927       29       0.00038096      -0.00323079      -0.00092076 
Cu     11.78200032       4.69088913       7.21644787       29       0.00244385      -0.00311550       0.00153073 
Cu     15.85427271       7.81387059       7.05087455       29      -0.00075706      -0.00039332       0.00297722 
Cu      9.70836550       3.23621784       7.36011293       29       0.00220393      -0.00296061       0.00083413 
Cu      9.63117179       9.79656291       7.82764506       29      -0.00122805      -0.00169298      -0.00317877 
Cu      6.24024221      10.86353565       7.98212971       29       0.00030462       0.00520364       0.00120019 
Cu      9.58929404      13.35444189       7.81983061       29       0.00080118      -0.00032586      -0.00021929 
Cu      7.04722093      13.27444945       7.86707383       29      -0.00229833      -0.00374239       0.00231198 
Cu      5.53228007       8.42695426       8.16287590       29      -0.00116175      -0.00216182       0.00197531 
Cu     12.99796201      10.94479740       7.94957172       29      -0.00223633      -0.00103038      -0.00049198 
Cu      7.57660390       6.91520034       8.20827356       29       0.00048726       0.00025265       0.00096646 
Cu     12.13269268      13.33479462       7.84410735       29       0.00118385      -0.00019043      -0.00193025 
Cu     11.75484097       6.96831633       8.18395478       29      -0.00231085       0.00431111       0.00238657 
Cu     13.76518411       8.52637153       8.11989512       29      -0.00407798       0.00033820       0.00230699 
Cu      9.68574902       5.48862933       8.32171280       29      -0.00010429       0.00318233       0.00420987 
Cu      6.97740438      15.60016181       8.79189356       29       0.00160066       0.00027906      -0.00064529 
Cu      4.89986421      14.05482762       8.89258076       29       0.00091775       0.00001475      -0.00027386 
Cu      9.56646640      15.70682685       8.75950295       29       0.00124934      -0.00063571       0.00130781 
Cu      4.05689115      11.60907206       9.02819244       29      -0.00138936       0.00188148      -0.00253844 
Cu      3.35967007       9.12041685       9.19571681       29      -0.00095904      -0.00091574       0.00087146 
Cu     12.15689709      15.66212644       8.76841901       29      -0.00002743      -0.00025819      -0.00129456 
Cu      4.18697051       6.67031116       9.33823808       29       0.00241675       0.00262426      -0.00103214 
Cu     14.26917787      14.16563558       8.85102729       29       0.00283909       0.00020614      -0.00189503 
Cu      8.35494811      11.59346664       9.05455698       29      -0.00749120       0.00391627      -0.00029197 
Cu     15.17343113      11.74192831       8.97473924       29      -0.00007553      -0.00009578       0.00121203 
Cu      6.25328061       5.11237061       9.40327948       29      -0.00015147       0.00131511      -0.00141110 
Cu      7.60281610       9.18864713       9.20147720       29      -0.00362809       0.00080483      -0.00352115 
Cu     10.87806380      11.62280624       9.04315061       29       0.00269383       0.00539903      -0.00119971 
Cu     11.68766741       9.23702601       9.18107730       29       0.00457631      -0.00344989       0.00068176 
Cu      9.66176429       7.73477609       9.27594160       29      -0.00029141      -0.00485537      -0.00339157 
Cu     15.93191461       9.27270941       9.13078388       29       0.00012018      -0.00245605       0.00026103 
Cu      8.41170019       3.67999379       9.49429993       29       0.00066682      -0.00209296       0.00057759 
Cu     13.13995176       5.20350674       9.34878874       29      -0.00020488      -0.00193811       0.00132640 
Cu     15.16684174       6.80562002       9.27745103       29      -0.00232795       0.00200168      -0.00041648 
Cu     11.00761813       3.69852906       9.50138634       29      -0.00170695      -0.00341277       0.00114319 
Cu      8.30393816      13.88914179       9.99223550       29      -0.00245740      -0.00471668      -0.00343505 
Cu      6.23312960      12.34931668      10.09271098       29       0.00234028       0.00203545      -0.00077547 
Cu      5.46506939       9.89048797      10.24428508       29      -0.00020096      -0.00263595      -0.00198609 
Cu     10.88470536      13.91914576       9.98013987       29      -0.00025074      -0.00167423       0.00031348 
Cu      6.28917111       7.44994975      10.38598792       29      -0.00051199      -0.00135266      -0.00084584 
Cu     12.99071832      12.42705266      10.06211795       29      -0.00173793       0.00202055       0.00081859 
Cu      9.64185106       9.93926862      10.22704909       29       0.00113226       0.00017093      -0.00098016 
Cu      8.38904045       5.96663149      10.45610503       29       0.00161882       0.00080296       0.00090123 
Cu     13.81932772       9.98748052      10.20319086       29      -0.00537934      -0.00014521      -0.00191927 
Cu     13.05454483       7.52666024      10.35044170       29      -0.00394460       0.00613607      -0.00282487 
Cu     10.98209929       5.99628090      10.44127994       29      -0.00139880       0.00200204       0.00272891 
Cu      8.27771806      16.16699082      10.95694639       29      -0.00054040       0.00219902       0.00244334 
Cu      4.12293829      13.07778847      11.15997546       29       0.00036832       0.00198990       0.00076213 
Cu      6.15347197      14.68570349      11.06872387       29       0.00045026       0.00032808       0.00470623 
Cu      3.35223056      10.61006581      11.31205758       29      -0.00040854      -0.00005927       0.00150049 
Cu     10.86793567      16.19770013      10.94543819       29      -0.00045329      -0.00001958       0.00124131 
Cu      9.62064528      12.14547230      11.16780922       29       0.00042620       0.00019720      -0.00180652 
Cu      7.59662323      10.64222828      11.26638632       29      -0.00259126      -0.00087045       0.00016316 
Cu      8.40356501       8.25721282      11.40428943       29      -0.00468645      -0.00736254       0.00426866 
Cu     11.68034115      10.68699911      11.24766498       29       0.00261105      -0.00024186      -0.00105537 
Cu      4.10803309       8.13689481      11.47296500       29      -0.00127295      -0.00137067      -0.00129554 
Cu     13.02452616      14.76488742      11.03970562       29       0.00051704      -0.00089979      -0.00106087 
Cu     10.93083011       8.28484340      11.39151562       29       0.00163923      -0.00128183       0.00411395 
Cu      5.01377996       5.71094500      11.59890543       29      -0.00012337       0.00180375      -0.00238617 
Cu     15.09207958      13.20459302      11.11143882       29       0.00069557       0.00242379      -0.00158591 
Cu     15.92377308      10.75737926      11.25344005       29       0.00087008       0.00312662      -0.00209327 
Cu      7.12403288       4.21340911      11.67243988       29      -0.00002165      -0.00086158       0.00054298 
Cu     15.23061794       8.27070491      11.41722465       29       0.00103094       0.00038556      -0.00012322 
Cu      9.70531111       4.19813578      11.66533333       29      -0.00273589      -0.00010916      -0.00112522 
Cu     14.40164979       5.83166773      11.55135647       29      -0.00010450      -0.00226162      -0.00009953 
Cu     12.34980004       4.30495836      11.60194656       29      -0.00166367      -0.00016697       0.00256007 
Cu      5.51937437      11.35470370      12.32354037       29       0.00159376       0.00024726      -0.00315669 
Cu      9.59973529      14.38727197      12.12298560       29       0.00125939       0.00033804       0.00372720 
Cu      7.52774075      12.91669085      12.25190073       29      -0.00177082      -0.00536203       0.00112281 
Cu     13.74956756      11.44696756      12.28617821       29      -0.00167681      -0.00078552      -0.00223297 
Cu      7.15422633       6.53837228      12.60337433       29       0.00489070       0.00523460      -0.00040395 
Cu      6.28346075       8.93337000      12.49629089       29       0.00544553      -0.00275302      -0.00087351 
Cu     11.70480596      12.96175182      12.23357634       29      -0.00107585       0.00047653      -0.00080612 
Cu     12.23908209       6.60257372      12.57602149       29      -0.00460743       0.00068893       0.00123638 
Cu      9.69035125       6.53044051      12.62513356       29      -0.00046972       0.00435306      -0.00283925 
Cu     13.04662097       9.00930631      12.46487198       29      -0.00437738       0.00060950      -0.00178763 
Cu      9.65132367      10.08173489      12.63074440       29       0.00172910      -0.00259941       0.00276845 
Cu      3.43031763      12.07280097      13.38618518       29      -0.00270088      -0.00094549       0.00175258 
Cu      9.57892305      16.64263929      13.08537662       29      -0.00083150      -0.00143385       0.00379431 
Cu      7.49987432      15.19159132      13.22441384       29      -0.00415829      -0.00186403       0.00299430 
Cu      5.42173274      13.64772752      13.32638996       29       0.00152696      -0.00114487       0.00087075 
Cu      4.17411917       9.65079464      13.57264536       29       0.00110686      -0.00022415       0.00132451 
Cu     11.69116038      15.23742151      13.20679063       29      -0.00335155       0.00223402       0.00083646 
Cu     15.82915282      12.21452661      13.33190004       29       0.00500367      -0.00352937      -0.00244928 
Cu      5.89612157       4.81666927      13.80873740       29      -0.00071084      -0.00071762       0.00091654 
Cu      5.00882572       7.19879372      13.71569411       29      -0.00100627       0.00043148      -0.00233750 
Cu     13.80155980      13.74135658      13.29013582       29       0.00227858       0.00086841       0.00014913 
Cu     13.51696305       4.86612021      13.75515613       29      -0.00436428      -0.00204477       0.00247271 
Cu     15.14734823       9.77368837      13.52236237       29      -0.00023267       0.00272743      -0.00047823 
Cu      8.44150064       4.76044347      13.83833223       29      -0.00177051      -0.00325033      -0.00123967 
Cu     14.37420466       7.29611357      13.67006270       29       0.00122352       0.00133304       0.00106563 
Cu     11.13762567       2.64150589      12.88070833       29      -0.00693461       0.00128607       0.00034632 
Cu      7.56112729      10.80402532      13.73772094       29      -0.00004425       0.00028731       0.00223393 
Cu      9.62882166      12.33919789      13.63650064       29       0.00100346       0.00108423       0.00594200 
