147
Lattice="18.3349334985 0.0 0.0 0.0 18.3349334985 0.0 0.0 0.0 18.3349334985" Properties=species:S:1:pos:R:3:Z:I:1:forces:R:3 energy=-459.71658299 pbc="F F F"
Cu      8.29681186       7.49128910      15.82898098       29       0.00075248       0.00120947      -0.00019624 
Cu     10.34861078       8.78894332      15.08502935       29       0.00049280      -0.00072351       0.00106525 
Cu      8.00091476       9.89216649      15.05755829       29       0.00038551       0.00051241       0.00154695 
Cu     10.07575524      11.23725029      14.29733397       29       0.00024824       0.00018768       0.00007524 
Cu     10.06700190       6.29517812      14.45518733       29      -0.00040667      -0.00006801       0.00057169 
Cu     12.41424386      10.10566669      14.24649506       29       0.00100957      -0.00074692      -0.00084713 
Cu      6.27282486       8.07809056      14.41104759       29      -0.00004234       0.00037873       0.00040129 
Cu      7.71318524      12.31497282      14.19198439       29      -0.00057244       0.00059498      -0.00027313 
Cu      7.54830993       5.85439017      14.04011857       29       0.00017625       0.00014785      -0.00012031 
Cu     12.17018838       7.59594024      13.67876594       29       0.00008824      -0.00031507       0.00038406 
Cu      5.94794782      10.52061992      13.60651896       29       0.00050074       0.00058249      -0.00057792 
Cu     12.12547478      12.52494998      13.39919975       29      -0.00005437       0.00000305       0.00083318 
Cu      9.77611251      13.62795201      13.37295599       29      -0.00011096      -0.00138748      -0.00075979 
Cu     14.40105703      11.41494311      13.34336343       29      -0.00075167      -0.00033766      -0.00137886 
Cu      7.47205746      14.67249158      13.26275829       29       0.00082330      -0.00038383       0.00037828 
Cu      8.59016918       8.05717319      13.46055745       29       0.00133300      -0.00029045      -0.00066569 
Cu     11.84798223       5.12235223      12.98703478       29      -0.00115432       0.00051080       0.00098924 
Cu     14.19334559       8.94562584      12.77152317       29      -0.00120864       0.00067617      -0.00029081 
Cu      4.26236715       8.68857471      12.89871397       29       0.00037895      -0.00024496       0.00006094 
Cu      5.71446954      12.93182283      12.67303443       29       0.00068621       0.00040892      -0.00086994 
Cu     10.63835637       9.35901052      12.69343956       29      -0.00091571      -0.00038823      -0.00097044 
Cu      8.30173718      10.45788439      12.66609860       29      -0.00073485      -0.00136207      -0.00199231 
Cu      9.33186098       4.62119522      12.62221036       29      -0.00032910       0.00052164      -0.00007392 
Cu      5.48828194       6.42820722      12.57714280       29       0.00019162      -0.00005563       0.00081150 
Cu     13.91155559       6.44668571      12.14584133       29      -0.00092927       0.00022267       0.00001429 
Cu     10.35693461       6.87080139      12.06607638       29       0.00012885      -0.00006542       0.00070722 
Cu      3.98276851      11.11509848      12.03008633       29      -0.00048996       0.00025945       0.00071850 
Cu     10.35810307      11.77649416      11.82896088       29       0.00016224      -0.00007676      -0.00088857 
Cu      6.57694134       8.64790784      12.02195899       29       0.00056962      -0.00007407       0.00100429 
Cu     12.64096718      10.65916734      11.80842835       29       0.00097588      -0.00026431       0.00146307 
Cu      6.81114650       4.24026733      12.15750687       29       0.00074894       0.00113787       0.00041442 
Cu      8.04197957      12.82127131      11.75516807       29       0.00117210      -0.00147695      -0.00029288 
Cu     11.83555092      14.96611648      13.44202453       29       0.00062049      -0.00002659      -0.00060344 
Cu     13.70997166      12.89332703      11.39436690       29      -0.00026348      -0.00014547      -0.00039174 
Cu      9.09045534      15.06578623      11.34206936       29       0.00052899       0.00013576      -0.00083468 
Cu      7.84706839       6.43081621      11.65228018       29      -0.00029813      -0.00127099       0.00017358 
Cu     13.56889201       4.01896918      11.48127796       29       0.00061983       0.00022604       0.00102713 
Cu     12.41299660       8.18938610      11.22858071       29      -0.00033742      -0.00120529       0.00032620 
Cu      2.34422805       9.29709118      11.35068148       29       0.00050552       0.00034017       0.00059925 
Cu     15.00282278      10.65424676      10.99727214       29      -0.00096976       0.00061491       0.00056125 
Cu      6.29761512      11.06475761      11.15748506       29       0.00041029       0.00003326      -0.00049995 
Cu      8.88148226       8.61784049      11.10578043       29      -0.00006859       0.00034460       0.00177027 
Cu      6.54893541      14.63030411      10.89909690       29       0.00061187      -0.00031341       0.00000879 
Cu     11.11019700       3.50681166      11.10278531       29      -0.00106791       0.00002262       0.00035709 
Cu      3.52521539       7.07346694      11.01445632       29      -0.00016620      -0.00010556      -0.00012581 
Cu     12.08847382       5.75115114      10.57602504       29      -0.00098868       0.00129109      -0.00118230 
Cu     14.80490032       8.13186475      10.39238432       29      -0.00041198       0.00066009      -0.00106921 
Cu      8.59233537       3.06568788      10.68863725       29      -0.00089737      -0.00020644      -0.00049189 
Cu      4.63950799       9.25385052      10.48891220       29      -0.00010403      -0.00085174       0.00110828 
Cu      4.79891293       4.84949899      10.64393136       29      -0.00073394      -0.00111425       0.00087914 
Cu     10.89065326       9.90474311      10.28764944       29      -0.00318317       0.00221380      -0.00729793 
Cu      7.97974129       9.53285197       2.50595252       29      -0.00015408       0.00052058      -0.00034491 
Cu     10.32545055       8.42915612       2.53274826       29      -0.00012679       0.00067702       0.00043857 
Cu      8.25177646       7.08539554       3.28981477       29       0.00005448       0.00054818       0.00018572 
Cu      8.26277328      12.03179255       3.13338469       29      -0.00129291       0.00104983      -0.00068765 
Cu      5.92247165       8.21792970       3.33394759       29       0.00016640       0.00057997       0.00012097 
Cu     12.05845890      10.24602558       3.17661168       29       0.00022511       0.00096263       0.00045944 
Cu     10.60781427       6.01358969       3.38823096       29       0.00075798       0.00092815      -0.00023138 
Cu     10.78354516      12.47280821       3.54656557       29      -0.00058273       0.00093508      -0.00015440 
Cu      6.16286800      10.73483296       3.89803711       29      -0.00065060      -0.00021312      -0.00020401 
Cu     12.38260121       7.80893311       3.96975001       29       0.00102664       0.00020614       0.00020681 
Cu      6.20267270       5.79336400       4.20295969       29       0.00017041       0.00019852      -0.00015160 
Cu      3.93102965       6.92760397       4.23743180       29      -0.00087453       0.00022690      -0.00008811 
Cu      8.54561847       4.69105929       4.23034356       29       0.00010865       0.00065065      -0.00050260 
Cu      9.74734278      10.28317567       4.07468007       29      -0.00035584      -0.00001267       0.00040357 
Cu     10.86702048       3.66526794       4.31792003       29       0.00087918      -0.00049443      -0.00024675 
Cu      6.48829301      13.21061686       4.58839327       29      -0.00073518       0.00054485       0.00002905 
Cu      4.14159326       9.39443472       4.80305748       29      -0.00047282       0.00077087      -0.00052389 
Cu     14.06942399       9.64520523       4.67607419       29       0.00039485      -0.00097603       0.00034497 
Cu     12.62176388       5.40618739       4.90094957       29       0.00065549      -0.00115159       0.00039378 
Cu      7.69776298       8.97592186       4.88443422       29       0.00043874       0.00070753       0.00060494 
Cu     10.03067780       7.87831832       4.91136474       29       0.00042800       0.00107319       0.00077850 
Cu      9.00154850      13.71292291       4.95051475       29       0.00028164       0.00029450      -0.00000062 
Cu     12.84695274      11.90405768       4.99482778       29      -0.00037489       0.00051299      -0.00061999 
Cu      4.42384729      11.89139608       5.42983223       29      -0.00045879      -0.00058762      -0.00054571 
Cu      7.97934686      11.46113822       5.50852059       29      -0.00032435      -0.00002745      -0.00038213 
Cu     14.35295319       7.22165618       5.54457948       29       0.00021460      -0.00060173       0.00104049 
Cu     11.75374429       9.68562363       5.55185028       29      -0.00027852       0.00016181       0.00027624 
Cu     11.52164301      14.09045889       5.41358598       29      -0.00005924      -0.00054701      -0.00008163 
Cu      7.97592843       6.55978330       5.75006150       29       0.00086943      -0.00024899       0.00021555 
Cu      5.69268953       7.68142101       5.76740005       29      -0.00087315      -0.00071267       0.00078900 
Cu     10.29509275       5.51646209       5.82081977       29       0.00112411       0.00064276       0.00098981 
Cu      6.91103505       4.30600459       6.20201180       29       0.00024859      -0.00006608      -0.00024183 
Cu      4.59735280       5.47260789       6.20889304       29      -0.00054350       0.00119785      -0.00047192 
Cu     10.48619165      11.90060215       5.91963016       29      -0.00072082       0.00037529       0.00014563 
Cu      9.28479640       3.26829564       6.26355921       29      -0.00030869      -0.00082536      -0.00021681 
Cu      4.76742410      14.31866194       6.09343527       29       0.00080419       0.00051377       0.00015992 
Cu      5.92181859      10.14813383       6.34816053       29       0.00034293       0.00002029      -0.00027604 
Cu     15.99070545       9.04020394       6.22421847       29      -0.00021545       0.00011716      -0.00069645 
Cu     12.03778383       7.27139472       6.41886778       29       0.00092703      -0.00003844       0.00018180 
Cu      3.32370560       7.69819585       6.57968212       29       0.00006843      -0.00024791      -0.00083172 
Cu      9.45398136       9.71922791       6.45650081       29       0.00075666      -0.00040919      -0.00061528 
Cu     11.80344544       3.71055848       6.67796904       29       0.00039888      -0.00062124      -0.00020651 
Cu      7.22457819      14.83165863       6.47223792       29       0.00022563       0.00013266       0.00033501 
Cu     14.81182566      11.26299054       6.56046764       29       0.00053025       0.00018024      -0.00018202 
Cu      6.24679154      12.58604950       6.99890628       29      -0.00005737       0.00007352      -0.00077509 
Cu      9.74151620      15.26992923       6.88115403       29      -0.00019358      -0.00037646      -0.00188656 
Cu      3.53190149      10.20963964       7.18558742       29      -0.00052904      -0.00038502      -0.00006922 
Cu     13.53654611      13.48440848       6.92459362       29       0.00031737       0.00064764      -0.00073170 
Cu     13.69555553       9.08248642       7.08512032       29       0.00283499      -0.00070675      -0.00055573 
Cu      7.44379013       8.43097280       7.28799415       29      -0.00133863      -0.00070035      -0.00075700 
Cu     13.59333834       5.47783459       7.30207396       29      -0.00032448      -0.00002879       0.00003903 
Cu      9.72740842       7.35686501       7.31460876       29      -0.00062652      -0.00087665      -0.00091759 
Cu      8.71099637      13.07732678       7.38109840       29       0.00018265       0.00050616      -0.00130602 
Cu     12.49548246      11.29694992       7.42451326       29      -0.00065514      -0.00005613      -0.00024720 
Cu      6.37595333       6.23984492       7.74885320       29       0.00047778       0.00038201       0.00063755 
Cu     12.22014121      15.62255074       7.31135291       29      -0.00037955      -0.00052284       0.00095818 
Cu      8.71196098       5.14118248       7.77611543       29       0.00114898       0.00028565       0.00030768 
Cu      3.88949614      12.69345834       7.83483489       29       0.00003488      -0.00092125       0.00170358 
Cu      7.71908381      10.86442074       7.89917019       29      -0.00291247       0.00005088      -0.00002913 
Cu     11.41432845       9.12612253       7.94218333       29      -0.00342100       0.00201202       0.00062308 
Cu      5.33489560       4.04892537       8.24070259       29       0.00065803       0.00023971       0.00013534 
Cu     11.19318070      13.45182527       7.81254414       29      -0.00051122       0.00046840      -0.00031966 
Cu     15.26544990       7.34294891       7.96713112       29      -0.00045532       0.00020476       0.00011170 
Cu      5.10682188       8.45728170       8.11837471       29      -0.00087480      -0.00021131      -0.00018227 
Cu      7.67959660       2.94632155       8.26811339       29      -0.00027806       0.00019323       0.00022383 
Cu     11.22204773       5.58149116       8.18954117       29      -0.00066023      -0.00046898      -0.00015855 
Cu     10.17174806      11.29214621       8.29895113       29       0.00105206      -0.00167981       0.00003468 
Cu      3.99332506       6.23526813       8.60927495       29      -0.00105281      -0.00029758      -0.00047805 
Cu     10.21159920       3.31086525       8.68173442       29      -0.00009056       0.00012921      -0.00051361 
Cu      5.62145112      14.50986719       8.47903722       29       0.00032138      -0.00017050      -0.00098241 
Cu     15.54755141       9.84089303       8.59431733       29      -0.00052463       0.00088995       0.00028079 
Cu      5.38747175      10.94619935       8.74428106       29       0.00116879       0.00015358      -0.00045273 
Cu      9.16777357       9.16906297       8.78389605       29       0.00454868      -0.00064100      -0.00141660 
Cu     12.94758356       7.39071496       8.83209396       29       0.00088177      -0.00109208       0.00028542 
Cu      2.78793089       8.49920326       8.98176385       29      -0.00019545      -0.00021802       0.00048928 
Cu     12.71629564       3.83035469       9.09708352       29       0.00043131      -0.00063255       0.00118721 
Cu      8.12535374      15.03024585       8.89815247       29       0.00006227      -0.00080088       0.00044329 
Cu     14.34345118      12.10484150       8.97004685       29       0.00152834       0.00062330      -0.00017069 
Cu      8.16256895       7.04294940       9.26989897       29      -0.00112965      -0.00222972       0.00045702 
Cu      7.10867712      12.75432171       9.38444994       29       0.00042747      -0.00082044      -0.00004585 
Cu     10.65124973      15.39716767       9.29476500       29       0.00011052       0.00015972      -0.00000196 
Cu     13.22999279       9.87522496       9.45555376       29       0.00026750      -0.00032144       0.00066177 
Cu      3.07080318      10.99761934       9.61031942       29      -0.00042726      -0.00054393       0.00027786 
Cu      7.14168361       4.88382264       9.76048908       29       0.00074025       0.00089611      -0.00041020 
Cu     13.00916954      14.28821946       9.32155008       29      -0.00017232       0.00075079       0.00048806 
Cu      6.92103292       9.21094296       9.63139019       29      -0.00175036      -0.00082002       0.00001677 
Cu     10.61666971       7.47296428       9.67456290       29       0.00047560      -0.00085440      -0.00020416 
Cu     14.44798360       5.64688363       9.74229118       29      -0.00030414       0.00053146       0.00098365 
Cu      9.60490794      13.19265687       9.78259877       29       0.00055328       0.00001047       0.00057989 
Cu     11.40869109      13.99553736      11.29882398       29      -0.00009489       0.00068101      -0.00086160 
Cu      6.11473423       2.71238276      10.25397007       29       0.00023628      -0.00044482      -0.00066374 
Cu      5.84183130       7.03744269      10.14436038       29       0.00015754       0.00139170      -0.00038579 
Cu      9.62182003       5.26008578      10.18843558       29      -0.00084951      -0.00024232      -0.00004401 
Cu      8.60741011      10.97877112      10.26019866       29       0.00047191       0.00054596       0.00195806 
Cu      4.74460960      12.86330952      10.27529610       29      -0.00037020      -0.00008562      -0.00022244 
Cu     11.96798289      12.08117314       9.80896286       29       0.00146357      -0.00136093       0.00675450 
