55
Lattice="16.1946342901 0.0 0.0 0.0 16.1946342901 0.0 0.0 0.0 16.1946342901" Properties=species:S:1:pos:R:3:Z:I:1:forces:R:3 energy=-162.189908558 pbc="F F F"
Cu      7.63586156       9.70996402      12.47544901       29      -0.00011998      -0.00106245      -0.00018598 
Cu      9.93464288       8.79980946      11.84715271       29      -0.00060861       0.00208540      -0.00011272 
Cu      8.19490512       7.17819129      12.07671690       29       0.00347993       0.00266764       0.00185379 
Cu      5.71252982      10.29747869      10.91165708       29       0.00096530       0.00395751      -0.00244688 
Cu      7.52839915      11.68685219      10.08530269       29      -0.00206221       0.00338923      -0.00496696 
Cu     10.65264209       6.36722440      11.63233353       29       0.00007085      -0.00081060      -0.00027922 
Cu      8.56486179       5.02047593      10.80612668       29       0.00362518      -0.00371808      -0.00548305 
Cu      5.85860250       8.00356241      11.55510429       29       0.00567190       0.00151425      -0.00033752 
Cu      9.82167249      10.87619932      10.58735099       29      -0.00196871       0.00254328      -0.00376047 
Cu      4.78469482       6.36142988       9.96137240       29       0.00154828      -0.00027915       0.00245282 
Cu      7.95930690       9.18643951      10.20022238       29      -0.00434069      -0.00242089      -0.00331456 
Cu     11.60622702       8.90242413      10.08150403       29      -0.00144875       0.00348650       0.00349538 
Cu      6.29793795       5.52615911      11.81254688       29      -0.00268026      -0.00258462      -0.00079239 
Cu      5.82542158       8.67571329       8.87904392       29       0.00304905      -0.00144012      -0.00302409 
Cu      9.84594272       9.57672906       8.48974092       29      -0.00191035      -0.00015153       0.00425074 
Cu      7.18405620       6.80980717       9.88609612       29      -0.00233109      -0.00473221       0.00254707 
Cu     10.59274043       4.90944742       9.54225770       29      -0.00365891       0.00005743       0.00300122 
Cu     11.96583887       6.78767510       8.83026426       29       0.00042175      -0.00279950      -0.00132491 
Cu      5.26107960      11.14653295       8.67925193       29       0.00172542       0.00208170       0.00367758 
Cu      3.81464115       8.80182577      10.09952131       29      -0.00001981      -0.00169908       0.00308033 
Cu      8.70135851       3.39338666       8.75835823       29       0.00002931       0.00111939      -0.00100903 
Cu      9.37488082      12.03829299       8.35935068       29       0.00091046      -0.00460308       0.00233726 
Cu      3.76870687       7.32187935       8.02429785       29      -0.00124415       0.00326291       0.00524827 
Cu     11.69223450      11.14259502       8.90071766       29      -0.00380036      -0.00266258       0.00255033 
Cu      9.64654628       7.32266914       9.72486218       29       0.00166922       0.00053319       0.00409370 
Cu      8.55660476       5.65827852       8.11273431       29      -0.00072126       0.00592821      -0.00179133 
Cu      8.03122389       8.04493426       8.04067789       29      -0.00202855      -0.00111192       0.00094600 
Cu      8.99494162       8.20071686       3.93079417       29       0.00152726       0.00115238      -0.00027506 
Cu      8.19479359       5.80335148       3.71918528       29      -0.00044268      -0.00029448       0.00117853 
Cu      9.77121694      10.59365606       4.24236020       29      -0.00082727      -0.00011957       0.00149331 
Cu      6.51647489       7.67021007       4.11649477       29      -0.00606096      -0.00149016       0.00134040 
Cu      7.29614521      10.07565901       4.40680329       29       0.00286389      -0.00497164       0.00385841 
Cu      4.83894405       9.50212300       4.66225719       29       0.00233959       0.00043889       0.00076102 
Cu     10.34939228       6.31039552       4.96679052       29      -0.00558818       0.00028199      -0.00349717 
Cu     11.13635204       8.71283455       5.25610225       29       0.00284621      -0.00054595       0.00299610 
Cu      6.24545870       5.41449986       5.28746669       29      -0.00556062       0.00307778      -0.00109816 
Cu      8.39076032      11.74474788       6.03193082       29      -0.00362748      -0.00121277      -0.00277534 
Cu      6.78624195       3.99580633       7.18928693       29       0.00246576       0.00046017       0.00184978 
Cu      4.60615792       7.22441060       5.74371836       29      -0.00311358       0.00024941      -0.00171296 
Cu      8.10186677       6.91437719       5.90722667       29       0.00709424      -0.00025054       0.00082521 
Cu      8.89512345       9.31209108       6.15430970       29      -0.00093880      -0.00203331      -0.00599335 
Cu      5.91035573      11.20850690       6.21447268       29       0.00048195      -0.00033312       0.00094999 
Cu      8.73978399       4.53173549       5.84067690       29       0.00338014       0.00219404      -0.00050403 
Cu     10.76357592      10.90408956       6.55312957       29       0.00589988      -0.00006644       0.00126018 
Cu      6.43084489       8.75941688       6.37686025       29       0.00130247      -0.00093766      -0.00060692 
Cu     12.42592742       6.81441258       6.34024836       29       0.00005690       0.00418202       0.00158963 
Cu      4.20719494       9.53288678       7.11415110       29      -0.00100026       0.00277172       0.00102703 
Cu     10.21273885       7.41895652       7.21366786       29      -0.00310497      -0.00111644      -0.00226006 
Cu      4.48451955       4.88712854       7.81416732       29      -0.00316245      -0.00082887      -0.00096058 
Cu     10.81079653       5.02686763       7.12138577       29       0.00107965       0.00076970       0.00391056 
Cu      7.00013890      12.80124763       7.87267318       29      -0.00329956       0.00284387      -0.00285730 
Cu     12.11618887       9.01047501       7.58425165       29       0.00364665      -0.00169421      -0.00017869 
Cu      6.19482363       6.49613117       7.58938914       29       0.00332228       0.00012418      -0.00324638 
Cu      7.50739944      10.40400192       7.97647469       29       0.00203125      -0.00404427      -0.00142833 
Cu      6.45374490       4.51341054       9.50030924       29       0.00216574      -0.00115757      -0.00635123 
