55
Lattice="15.8794592458 0.0 0.0 0.0 15.8794592458 0.0 0.0 0.0 15.8794592458" Properties=species:S:1:pos:R:3:Z:I:1:forces:R:3 energy=-162.519824593 pbc="F F F"
Cu      6.29247769       6.84169057      11.55977025       29      -0.00137445      -0.00072924       0.00008785 
Cu      4.57174840       8.20462939      10.18931830       29      -0.00485076      -0.00099765       0.00162379 
Cu      8.16186863       8.06069073      12.78915043       29      -0.00103270      -0.00248792       0.00021167 
Cu      8.69665594       5.89333220      11.55169568       29      -0.00127393       0.00020955      -0.00239171 
Cu      6.44428868       9.42239966      11.49366198       29      -0.00069488       0.00338538       0.00146358 
Cu      4.47524702       5.65947798      10.21937837       29      -0.00074522       0.00012008       0.00227618 
Cu     10.32657837       7.89995843      11.47665675       29      -0.00157296      -0.00402313      -0.00121904 
Cu      4.77572240      10.74142688      10.09130922       29      -0.00165993       0.00200033      -0.00077801 
Cu      8.13493840       7.99814133      10.35162092       29      -0.00171197       0.00220196       0.00317521 
Cu      7.22645401      11.44122242      10.07325319       29       0.00107307       0.00032993      -0.00197821 
Cu      9.21602852       3.79188623      10.19416822       29       0.00014467      -0.00039490       0.00006509 
Cu      6.82702065       4.67644752      10.24567195       29      -0.00336586       0.00211838      -0.00026620 
Cu     10.85937138       5.72041649      10.15948146       29       0.00500969       0.00413128      -0.00497229 
Cu      8.94270872      10.08313353      11.44325477       29       0.00337582      -0.00461281       0.00125899 
Cu      8.06532807       7.81899123       3.09030882       29       0.00317802      -0.00134353      -0.00253188 
Cu     11.50234478       7.62276561       3.31258689       29      -0.00184496      -0.00000569       0.00203324 
Cu      7.46726217       9.98854058       4.33420670       29      -0.00302655      -0.00027926      -0.00084382 
Cu      9.85871969       9.08539993       4.33357889       29      -0.00076080      -0.00375644       0.00154825 
Cu      9.35877865      11.22070439       5.65009174       29       0.00018758      -0.00350204       0.00222647 
Cu      9.70135151       6.41548234       4.40149172       29      -0.00172595      -0.00260602      -0.00084792 
Cu      5.84884891       7.98333731       4.40127302       29       0.00064343       0.00088995       0.00139559 
Cu      7.21778856       5.79967418       4.43983363       29       0.00169146      -0.00155687      -0.00072247 
Cu      6.96158270      12.08447362       5.69248309       29       0.00361835      -0.00038839       0.00139331 
Cu     11.71656312      10.19653405       5.62662663       29       0.00035034      -0.00351229      -0.00040815 
Cu     10.75463723      11.18047904       7.81294311       29       0.00018068       0.00172791      -0.00135452 
Cu      8.05444551       7.87983075       5.53267022       29       0.00426130       0.00579776       0.00330009 
Cu      5.30472208      10.14821604       5.72841549       29      -0.00136701      -0.00476265       0.00133503 
Cu     11.63273445       7.67201310       5.73669733       29       0.00418805       0.00199973      -0.00323083 
Cu     11.41569283       5.15421792       5.75370982       29       0.00155790      -0.00143300       0.00011363 
Cu      3.73965766       8.14403293       5.82806583       29       0.00177422       0.00079645       0.00401841 
Cu      8.95433629       4.42075687       5.82106201       29       0.00255946       0.00068390       0.00256385 
Cu      5.05730956       5.96759593       5.83397970       29      -0.00180319      -0.00131060       0.00125058 
Cu      7.53597215       9.99987891       6.82059807       29       0.00492549       0.00330101      -0.00150921 
Cu      9.89779632       9.07710400       6.81319319       29      -0.00349281       0.00811962      -0.00097133 
Cu      6.47345307       3.84812563       5.90218124       29       0.00194573       0.00250422      -0.00165836 
Cu      9.74630920       6.53859669       6.87852700       29      -0.00290887      -0.00113811      -0.00388581 
Cu      5.93216549       8.04087708       6.89220222       29      -0.00246873       0.00197032       0.00238897 
Cu      7.29312194       5.90477929       6.92464737       29       0.00334057      -0.00189488      -0.00086183 
Cu      8.33678787      12.12358116       7.84035233       29       0.00088258      -0.00270967      -0.00146010 
Cu     11.10988405       9.92522607      10.04903494       29       0.00282357      -0.00008712       0.00284092 
Cu      5.83463216      11.46717739       7.89134272       29       0.00096688       0.00016276      -0.00329279 
Cu     12.13980159       9.01036133       7.85463371       29       0.00013949       0.00608091      -0.00370574 
Cu      8.11229210       7.93856110       7.94867155       29      -0.00301305      -0.00231238       0.00045929 
Cu     11.98240089       6.38931548       7.92071918       29       0.00277410       0.00116271       0.00378172 
Cu      4.19529809       9.46587735       7.96131917       29       0.00043910       0.00116099       0.00131395 
Cu     10.35142247       4.40225417       7.98639657       29       0.00010682      -0.00270259      -0.00325351 
Cu      4.04274420       6.88645920       8.02658134       29       0.00061134      -0.00086184       0.00178138 
Cu      8.90022837       9.97436513       8.95878294       29      -0.00441309       0.00018005      -0.00174751 
Cu      7.84116080       3.75587808       8.05330217       29       0.00004729       0.00236198      -0.00347476 
Cu      5.43451717       4.70519138       8.06266612       29      -0.00116338      -0.00310179      -0.00209297 
Cu      6.44725293       9.33314268       9.00950157       29       0.00144147       0.00227825       0.00010877 
Cu     10.31156677       7.83475336       9.01322592       29      -0.00081657      -0.00432831       0.00098170 
Cu      8.65748075       5.87749861       9.06324445       29      -0.00347658      -0.00105594       0.00384432 
Cu      6.29804571       6.80499384       9.07388963       29      -0.00126967      -0.00015709       0.00104541 
Cu      9.70575594      12.03380142       9.98281863       29      -0.00240461       0.00237672      -0.00042831 
