55
Lattice="15.5618042023 0.0 0.0 0.0 15.5618042023 0.0 0.0 0.0 15.5618042023" Properties=species:S:1:pos:R:3:Z:I:1:forces:R:3 energy=-161.879348543 pbc="F F F"
Cu      8.18258917       5.09468083      11.22078616       29      -0.00100870      -0.00041754       0.00046190 
Cu      7.32579714       7.49346200      11.31767070       29       0.00152980      -0.00176892       0.00011651 
Cu      9.46462737       8.18137429      12.47702347       29      -0.00241511       0.00350473       0.00160830 
Cu      6.11176230       9.77698074      11.33429615       29      -0.00257072       0.00149063      -0.00282145 
Cu      8.56620650       9.71815667      10.86281910       29      -0.00212647      -0.00157757       0.00191848 
Cu      7.45759536       3.96640488       8.98855627       29      -0.00037333      -0.00132045      -0.00261585 
Cu      5.86541696       5.53308273      10.22074896       29       0.00026853      -0.00131292       0.00126358 
Cu      9.91586489       6.81361826      10.57727057       29       0.00086104       0.00198284      -0.00236780 
Cu      4.86487012       7.86520892      10.25757594       29       0.00309351       0.00271595       0.00060909 
Cu      9.78999317       4.69553931       9.28965381       29       0.00005371       0.00035964      -0.00417034 
Cu     10.99443214       9.13124368      10.53547709       29      -0.00028255      -0.00104589       0.00014036 
Cu      7.92687630       6.41294789       9.18533468       29       0.00330720       0.00141448       0.00375349 
Cu      6.91940841       8.79442292       9.24835794       29      -0.00340683       0.00208433       0.00108479 
Cu      3.62888756       5.97747209       9.06956731       29      -0.00041531      -0.00021501       0.00284181 
Cu      9.38987683       8.51156358       8.83489875       29      -0.00098138      -0.00161654      -0.00068169 
Cu      7.14807061      11.26911825       9.50850747       29       0.00246614       0.00175261      -0.00025336 
Cu      9.75521504      10.96851277       9.06421874       29       0.00116738      -0.00158614       0.00377891 
Cu     11.61719024       7.31582349       8.83005993       29      -0.00363460      -0.00369909       0.00240061 
Cu      4.86593857      10.19862463       9.13381662       29       0.00076172       0.00270301      -0.00017334 
Cu      5.26084083       4.47205410       7.87155239       29       0.00015437       0.00050025       0.00501327 
Cu     11.93291664       5.34620785      10.18170537       29      -0.00257588       0.00007364      -0.00260390 
Cu      5.69178054       6.87764423       8.12365440       29      -0.00002236       0.00986055      -0.00030872 
Cu      5.78040445       8.43874154       3.55518745       29       0.00151143       0.00221643       0.00176399 
Cu      4.35333412       6.39137533       4.02192879       29      -0.00040708      -0.00173081       0.00115604 
Cu      7.26577127      10.46669368       3.19059770       29      -0.00195366       0.00007676       0.00051321 
Cu      6.83307615       6.09287943       3.49492143       29      -0.00083119       0.00088769      -0.00039350 
Cu      8.30743977       8.15099092       3.08478073       29      -0.00014258      -0.00045516      -0.00000570 
Cu      9.34843418       5.83299170       3.09254318       29      -0.00097416       0.00255641      -0.00100122 
Cu      3.99241158       8.47987942       5.42519313       29       0.00284753      -0.00193989      -0.00175513 
Cu      5.46257888      10.54567901       4.98870705       29       0.00047022       0.00097110      -0.00139234 
Cu      8.19639679       4.39176719       4.80914601       29       0.00379050       0.00089976      -0.00058605 
Cu      9.55781517      10.09597672       4.23610363       29       0.00071356      -0.00077215       0.00014109 
Cu     10.57590394       5.41129787       5.29870487       29      -0.00151582      -0.00176395       0.00070342 
Cu     10.60672129       7.75652698       4.16836026       29      -0.00444561       0.00235960       0.00119865 
Cu      6.05581242       7.09140024       5.63243797       29      -0.00155448      -0.00000605       0.00240497 
Cu      7.50300583       9.12381364       5.22381898       29      -0.00075932       0.00009805       0.00136693 
Cu      8.54135021       6.80818623       5.18335403       29       0.00287210      -0.00250616       0.00166358 
Cu      5.67315714       4.67698878       5.32989352       29       0.00070444      -0.00264837      -0.00258686 
Cu      7.78581957      11.57007009       5.40759331       29       0.00293542       0.00104385       0.00109182 
Cu     11.70885370       5.04867217       7.64382468       29      -0.00234412      -0.00038788       0.00130693 
Cu      3.73836588      10.54719073       6.87294919       29      -0.00085863       0.00177718       0.00006550 
Cu     11.82549209       7.34133742       6.36699985       29       0.00133284      -0.00232428      -0.00033075 
Cu      9.41315315       3.95017893       6.98624428       29       0.00172320       0.00514799       0.00124687 
Cu      5.75252737       9.16736111       7.04368093       29      -0.00134513      -0.00170415       0.00203311 
Cu     11.79706435       9.67440047       5.36507030       29      -0.00137286      -0.00026569      -0.00147103 
Cu      3.63345080       8.26775720       7.99027145       29      -0.00158671      -0.00504624      -0.00104813 
Cu      9.72738122       6.41211759       7.44344231       29       0.00169218      -0.00319875      -0.00218294 
Cu      5.99499626      11.61162527       7.26115764       29       0.00158567       0.00045484       0.00168022 
Cu      9.76578037       8.71767168       6.32265224       29      -0.00121387       0.00137380      -0.00340373 
Cu      7.40320611       5.36165389       6.95120756       29       0.00281939      -0.00310546      -0.00329991 
Cu      7.73859250       7.78753983       7.22224842       29       0.00354838      -0.00303364       0.00030288 
Cu     10.08769701      11.18018809       6.49079360       29      -0.00126223       0.00069506      -0.00191079 
Cu      3.91665701       6.16780293       6.52502562       29      -0.00197076      -0.00462384      -0.00400860 
Cu      8.03978291      10.21822710       7.46470981       29       0.00166036      -0.00058942      -0.00250537 
Cu     11.48515081       9.58005746       7.89127952       29       0.00048083       0.00166080       0.00024818 
