55
Lattice="16.2339690802 0.0 0.0 0.0 16.2339690802 0.0 0.0 0.0 16.2339690802" Properties=species:S:1:pos:R:3:Z:I:1:forces:R:3 energy=-162.476451713 pbc="F F F"
Cu      8.47217698       9.94825050      11.78566332       29      -0.00111536      -0.00236955       0.00128409 
Cu     10.46615441       8.43833211      12.32828984       29       0.00321223       0.00122388       0.00320026 
Cu     10.16556868       6.13608572      11.26563597       29       0.00159183       0.00097161      -0.00208473 
Cu      6.11440389       8.90044360      11.66679823       29      -0.00256983       0.00045695       0.00113729 
Cu      8.14642890       7.41720657      12.25874252       29       0.00173389      -0.00348945      -0.00116712 
Cu      5.83040571       6.39232640      12.07081061       29      -0.00194095       0.00137294       0.00213827 
Cu     10.69561629      10.21647933      10.53961666       29      -0.00110266      -0.00053109       0.00038890 
Cu     11.75284391       7.85015083      10.20909457       29       0.00221754       0.00129177      -0.00201349 
Cu      6.46312107      11.37941330      11.13942622       29       0.00618226      -0.00428511      -0.00073116 
Cu      9.81528208       3.90297948      10.08980726       29       0.00031795       0.00117793       0.00332898 
Cu      4.51698586       7.49658554      10.19826693       29      -0.00190609       0.00245522      -0.00246050 
Cu      9.29429312       8.21372527      10.20059873       29       0.00152849      -0.00110358      -0.00701620 
Cu      8.64909428      11.72275926       9.88497271       29       0.00039397       0.00239558      -0.00281791 
Cu      8.96553177       5.96292899       9.09168625       29      -0.00209034       0.00300781      -0.00321107 
Cu      7.81676337       5.10271655      11.12883028       29       0.00246877       0.00148123      -0.00001784 
Cu      6.98202909       7.19571205      10.07437275       29       0.00394474       0.00272970      -0.00454278 
Cu     11.98825004       9.61252686       8.40284715       29       0.00081492       0.00050500       0.00288258 
Cu     11.41588560       5.58011293       9.05151386       29       0.00296214       0.00041044      -0.00127773 
Cu      5.57842775       5.15548648       9.85603435       29      -0.00044069      -0.00402892      -0.00260071 
Cu     10.51407134       7.67607005       8.04025739       29      -0.00572240       0.00207283       0.00086365 
Cu      4.83961549      10.02847230       9.72159017       29       0.00598061      -0.00078938       0.00083539 
Cu      9.50916405       9.99976527       8.39041268       29      -0.00122747      -0.00245018       0.00534817 
Cu     12.92935461       7.31483594       7.98732198       29      -0.00129523      -0.00300580       0.00401695 
Cu      7.29512769       9.66980405       9.61868664       29      -0.00609278       0.00171645       0.00420694 
Cu      7.60242441       3.89607918       8.84901947       29       0.00051389       0.00171938      -0.00034920 
Cu      6.43217535      11.78309458       8.61636839       29      -0.00104277      -0.00295675       0.00533258 
Cu      9.82307264       4.21064208       7.55280905       29       0.00193380      -0.00061392       0.00080650 
Cu      8.13014085       8.00725955       8.09961039       29       0.00032747      -0.00207786       0.00516091 
Cu      5.73153349       7.48169681       3.90567924       29      -0.00321433      -0.00068124      -0.00686845 
Cu      8.18695276      10.76360835       4.96291957       29      -0.00139747       0.00049261       0.00112335 
Cu      8.07016832       8.51036704       3.93319985       29       0.00485661      -0.00731040      -0.00149369 
Cu      7.75647456       6.02057431       4.41537241       29       0.00046095       0.00322058       0.00131560 
Cu      5.91170425       9.77098899       4.96806910       29      -0.00129949       0.00386229      -0.00110111 
Cu      5.53660418       5.71428796       5.71256503       29      -0.00176647       0.00281939       0.00177749 
Cu     10.37562607       9.78291636       4.20443951       29       0.00152058       0.00057067       0.00285184 
Cu      4.44669411       8.01849494       6.06159989       29      -0.00091999       0.00051666       0.00026211 
Cu     10.12727073       7.14452976       4.54346836       29      -0.00375957       0.00172282       0.00135199 
Cu      9.78845543       4.64216203       5.03283204       29      -0.00090277       0.00098947       0.00259090 
Cu      9.96460526      12.33788990       4.93651499       29      -0.00143395      -0.00531042       0.00089235 
Cu      8.68564198      12.00174108       7.17361176       29      -0.00008259      -0.00047974      -0.00519013 
Cu      6.93894043       7.75990684       6.00642460       29       0.00046251      -0.00343263       0.00175244 
Cu      7.59047948       4.25913969       6.28609375       29       0.00034914       0.00066671       0.00192586 
Cu      6.36375080      12.05412620       6.09398639       29       0.00014155      -0.00126203       0.00060081 
Cu      5.40534108       4.00522975       7.58616069       29       0.00275661       0.00263345       0.00050530 
Cu      4.77819068      10.36928212       7.18007610       29      -0.00270551       0.00123254      -0.00284364 
Cu      9.25884631       8.84332971       6.13792585       29      -0.00089040       0.00084985       0.00168330 
Cu      4.29343724       6.26894214       7.92974225       29      -0.00034111      -0.00398797      -0.00183599 
Cu      8.95020274       6.33332249       6.57337078       29      -0.00068637       0.00008373      -0.00292500 
Cu      3.30461447       8.60043636       8.26091060       29      -0.00096899       0.00115868      -0.00131863 
Cu      7.23526071      10.00746364       7.11044774       29       0.00103590       0.00405422      -0.00117966 
Cu     11.73724025       8.45093577       6.02616335       29       0.00200703       0.00261949      -0.00106400 
Cu     11.40441701       5.94581545       6.48433736       29      -0.00170801       0.00223257       0.00032701 
Cu      6.77156432       6.01596657       7.84281293       29      -0.00456838      -0.00591294      -0.00056079 
Cu     10.83855415      10.74296132       6.48809081       29       0.00223967      -0.00166312      -0.00333439 
Cu      5.72360202       8.29114058       8.17381246       29       0.00123692       0.00302761       0.00011409 
