55
Lattice="16.5005167064 0.0 0.0 0.0 16.5005167064 0.0 0.0 0.0 16.5005167064" Properties=species:S:1:pos:R:3:Z:I:1:forces:R:3 energy=-161.815605729 pbc="F F F"
Cu      7.52852212       7.97000512      13.01805206       29       0.00496537       0.00363012      -0.00214871 
Cu      8.04078294      11.38958140      13.05372597       29      -0.00247077      -0.00040993      -0.00025012 
Cu      9.67820352       7.01868921      11.97557527       29       0.00147347      -0.00111730      -0.00051974 
Cu      7.42280076       5.84930676      11.55897118       29      -0.00090682      -0.00528324      -0.00108135 
Cu      9.26246291       9.53819294      12.07178752       29       0.00035357      -0.00160905      -0.00371216 
Cu      5.56989669       7.63367175      11.38976990       29       0.00198963      -0.00248218       0.00277061 
Cu      6.64945415       9.93195064      11.70055381       29       0.00221709       0.00029972      -0.00128212 
Cu     11.78933220       6.18188346      10.81768831       29       0.00030853      -0.00018536       0.00235368 
Cu      9.58653730       4.95311575      10.44155860       29       0.00194384       0.00178268      -0.00130240 
Cu      7.34836729       3.83300650       9.99994728       29      -0.00163926      -0.00429092      -0.00183655 
Cu      7.89072561       8.08836485      10.60048131       29      -0.00062411      -0.00371987       0.00067335 
Cu     11.40645105       8.68994367      10.96448299       29      -0.00194148       0.00083173       0.00135254 
Cu      5.48596060       5.56425131       9.86186448       29      -0.00348120       0.00143884      -0.00065938 
Cu     10.86752703      11.19991203      11.06489187       29      -0.00173106      -0.00008102       0.00034928 
Cu      3.70669029       7.38389465       9.67560865       29       0.00136062       0.00058520       0.00000198 
Cu      8.41539228      11.63899082      10.66902722       29      -0.00557236      -0.00235436      -0.00011420 
Cu      4.74117106       9.68716860      10.01813912       29       0.00065895       0.00328403       0.00347504 
Cu      5.93380185      11.94479907      10.36209802       29       0.00100140      -0.00067017      -0.00425539 
Cu     10.00842540       7.22588961       9.51607180       29      -0.00077962       0.00078758       0.00083202 
Cu      7.80235842       6.05449443       9.10172718       29      -0.00203749       0.00151586       0.00183586 
Cu      9.57148519       9.71338236       9.61473778       29      -0.00183040       0.00172193      -0.00408378 
Cu      5.99225121       7.82257056       8.94193369       29      -0.00077780       0.00549620       0.00238568 
Cu      7.08420270      10.08844271       9.26179000       29       0.00071304      -0.00183342       0.00196430 
Cu     11.24153328       5.32471793       8.49012071       29       0.00083003       0.00089938      -0.00236666 
Cu      8.98973057       4.12986351       8.06702294       29      -0.00175358      -0.00065413       0.00097030 
Cu     12.36413413       7.64497974       8.80538281       29      -0.00347255      -0.00383838      -0.00134939 
Cu      6.46199675       4.51233224       7.71924893       29       0.00315500       0.00240830      -0.00446917 
Cu     11.91471101      10.18553066       8.93967446       29      -0.00077810      -0.00101077      -0.00215741 
Cu      8.23333853       8.25076258       8.20763158       29      -0.00174240      -0.00227551      -0.00062790 
Cu      4.60916422       6.32154425       7.55631182       29       0.00471315       0.00201596      -0.00053114 
Cu     10.06933230      12.00562298       8.76146080       29       0.00039473       0.00150126       0.00240687 
Cu      4.15770642       8.85878490       7.65472250       29       0.00285196      -0.00438717       0.00006452 
Cu      7.52971986      12.38787378       8.38586946       29      -0.00238557       0.00191545      -0.00350847 
Cu      5.28114876      11.18401307       8.00162848       29      -0.00436245       0.00662054       0.00253503 
Cu      9.42377063       6.41807470       7.18780529       29      -0.00160437       0.00189508      -0.00078258 
Cu     10.51515528       8.68114713       7.51442211       29       0.00659176      -0.00685892       0.00121870 
Cu      6.91773896       6.75735601       6.80404755       29      -0.00098270       0.00004399       0.00212859 
Cu      7.31307757       6.93671829       4.36926971       29       0.00196772       0.00106015       0.00320405 
Cu      9.03118310       8.61153066       3.44679074       29       0.00041743      -0.00002120       0.00168870 
Cu      9.04537496      10.66638780       4.91110174       29      -0.00173128      -0.00049275      -0.00211548 
Cu     10.94244466       8.79740428       5.07744227       29      -0.00398597       0.00099128      -0.00267514 
Cu     11.35025678      11.03963911       4.24858564       29      -0.00153993       0.00006759      -0.00003066 
Cu      6.84180232       9.45586122       4.47526604       29      -0.00062291      -0.00194340       0.00135972 
Cu      6.46203563       9.30681045       6.90809929       29       0.00421640       0.00027765       0.00345794 
Cu     11.76888982       6.80425538       6.44726326       29      -0.00211396      -0.00271760       0.00127159 
Cu      9.82058581       6.52892318       4.73542188       29      -0.00023639      -0.00127662      -0.00169496 
Cu      5.14011585       7.80487910       5.50117549       29       0.00109650      -0.00034770      -0.00073898 
Cu      8.12149952       4.88363910       5.75501349       29      -0.00153655       0.00216443       0.00245915 
Cu      8.61406674       8.41133043       5.84845410       29       0.00132668      -0.00117411       0.00318406 
Cu      9.20093209      12.66751020       6.43806913       29       0.00097096      -0.00010929       0.00257704 
Cu      8.70333975      10.45677715       7.35802870       29       0.00069351       0.00187007      -0.00146943 
Cu     10.60756954       4.55613036       6.14490158       29       0.00294014       0.00535670       0.00242837 
Cu      6.92797227      11.56173826       6.03327384       29       0.00419584      -0.00165251      -0.00423851 
Cu     12.79382642       9.14243369       6.75498261       29      -0.00346351       0.00530977       0.00309597 
Cu     11.03440726      10.94618311       6.65378717       29       0.00275728      -0.00297457      -0.00204317 
