55
Lattice="15.618651717 0.0 0.0 0.0 15.618651717 0.0 0.0 0.0 15.618651717" Properties=species:S:1:pos:R:3:Z:I:1:forces:R:3 energy=-161.79395338 pbc="F F F"
Cu      6.19929315       7.88026715      12.56742917       29      -0.00152092       0.00118481       0.00316752 
Cu      6.47823532      10.12861684      11.42286008       29      -0.00126974       0.00115689      -0.00275917 
Cu      8.51994208       8.75167637      12.04843564       29      -0.00379197      -0.00254730      -0.00095881 
Cu      4.60830947       8.53937747      10.71961980       29      -0.00058579       0.00179370      -0.00830967 
Cu      7.97753515       6.27420068      11.77062617       29      -0.00282615       0.00172940      -0.00134860 
Cu      5.52966472       6.10340901      10.87077009       29      -0.00012692       0.00233144      -0.00026463 
Cu      6.78959802      12.31835293      10.18157591       29       0.00236944       0.00162802      -0.00126228 
Cu      8.82777072      10.98730904      10.83461486       29      -0.00091549       0.00322939       0.00134690 
Cu      4.90993158      10.76595151       9.49408740       29      -0.00000365      -0.00445286       0.00096754 
Cu      6.98964311       7.96843562      10.23902081       29      -0.00204696      -0.00172848       0.00014681 
Cu     10.30366172       7.13763516      11.17672075       29       0.00671915       0.00403639       0.00442427 
Cu      3.09588991       9.15650133       8.76296463       29      -0.00038551       0.00143086       0.00159043 
Cu      3.91870912       6.77267255       9.04495770       29      -0.00060725       0.00034453       0.00268509 
Cu      9.74466078       4.69830222      10.85556092       29       0.00084487       0.00313617       0.00283279 
Cu      7.31466809       4.48894091      10.11724978       29       0.00558061       0.00256423      -0.00074632 
Cu      4.88865489       4.36524294       9.11266018       29      -0.00050576      -0.00376919       0.00008096 
Cu      7.28331542      10.17704207       9.06511730       29       0.00360372       0.00193918       0.00238783 
Cu      9.31901304       8.84074528       9.70893547       29       0.00311672       0.00283055      -0.00309220 
Cu      5.44234272       8.58478657       8.34789460       29       0.00241524       0.00013630       0.00176771 
Cu      8.74151176       6.37267208       9.36744895       29      -0.00278436      -0.00465795      -0.00514881 
Cu      6.34264514       6.16696672       8.44708855       29      -0.00410357      -0.00152870       0.00247089 
Cu      8.72324342      12.14544639       8.54295933       29      -0.00399316       0.00065581      -0.00463293 
Cu     10.76697156      10.77812959       9.17313701       29      -0.00124651      -0.00328461      -0.00036578 
Cu      6.30218055      12.03363863       7.71650902       29       0.00198093       0.00120728       0.00289639 
Cu      4.42129112      10.46369267       7.02036026       29       0.00106019      -0.00094767      -0.00285909 
Cu     11.71128734       8.40292619       9.39234878       29      -0.00400082       0.00174738      -0.00181980 
Cu      7.78300136       8.04077099       7.95296797       29       0.00256865       0.00278365       0.00255967 
Cu     11.20567903       5.92669893       9.15281207       29       0.00095034       0.00126570       0.00017761 
Cu      3.77444418       8.03812593       6.59379311       29      -0.00238048      -0.00156580       0.00037103 
Cu      9.41643014       4.24536381       8.40452104       29      -0.00041673       0.00311056      -0.00012028 
Cu      4.83731713       3.30029878       6.88896517       29       0.00525741       0.00016571      -0.00802631 
Cu      7.04636018       3.88869323       7.75737136       29      -0.00037275      -0.00109813      -0.00006979 
Cu      9.19591886       9.94743440       7.42370277       29       0.00238686       0.00506920       0.00413348 
Cu      9.11307207       8.23125911       3.37548841       29       0.00201352       0.00154871      -0.00257555 
Cu      6.45504773       8.33942354       3.05122255       29       0.00441500       0.00056129       0.00120392 
Cu      7.36754092       6.50780194       4.22541993       29       0.00300724       0.00296656      -0.00840813 
Cu      7.61092592      10.06757452       4.31702595       29       0.00116478      -0.00026399       0.00507789 
Cu      9.67223158       6.04176248       4.64258908       29      -0.00230246       0.00010221      -0.00455429 
Cu     10.00615305      10.13574245       5.09069475       29       0.00131045      -0.00102369       0.00144014 
Cu      4.80708968       6.72913167       4.44735570       29      -0.00118802      -0.00029212       0.00515463 
Cu      6.29791942       4.88140527       5.63888462       29      -0.00213350      -0.00369642      -0.00137329 
Cu      5.15691114       9.23717821       4.89873531       29       0.00577972       0.00255321       0.00146742 
Cu      8.56319207       8.16911980       5.68296844       29      -0.00527827       0.00097391      -0.00137842 
Cu     10.84336986       5.45753305       6.70746906       29      -0.00075519      -0.00210389      -0.00183046 
Cu      5.84674648      11.63389604       5.25595306       29      -0.00267863       0.00025206       0.00138935 
Cu      8.24869269      11.80678161       6.05439099       29       0.00056941      -0.00052243      -0.00084136 
Cu     11.06579853       7.88325722       5.34546038       29       0.00169225       0.00025375       0.00053812 
Cu     12.52276180       7.20290227       7.33624585       29      -0.00250995       0.00057626      -0.00250765 
Cu      6.21434770       7.38714775       6.24307415       29       0.00144436      -0.00342557       0.00437815 
Cu      8.32169836       5.87986550       6.78077501       29       0.00020937      -0.00036244       0.00061736 
Cu     10.62861967      11.86548195       6.87813417       29      -0.00320986      -0.00234193       0.00056215 
Cu      6.81235773       9.83430455       6.63018176       29      -0.00096209      -0.00257094       0.00200828 
Cu     10.12165646       7.60187269       7.62527474       29       0.00015569      -0.00428068      -0.00164505 
Cu      4.40110465       5.69846157       6.89484311       29      -0.00664635      -0.00010881       0.00666249 
Cu     11.62755649       9.56739536       7.11021811       29       0.00093293      -0.00869148       0.00239189 
