55
Lattice="16.0394512859 0.0 0.0 0.0 16.0394512859 0.0 0.0 0.0 16.0394512859" Properties=species:S:1:pos:R:3:Z:I:1:forces:R:3 energy=-161.755416119 pbc="F F F"
Cu      9.54271395       8.01554273      12.05888015       29       0.00125754       0.00123798       0.00392697 
Cu     11.46189518       9.52184291      12.36391973       29       0.00227191       0.00034403      -0.00269900 
Cu      9.95724531       5.79362956      11.11279199       29      -0.00205136      -0.00097213      -0.00104571 
Cu      7.55710296       6.60934505      12.06660925       29       0.00236557       0.00046854       0.00222700 
Cu      7.29358443       9.28513429      12.61924244       29      -0.00153918      -0.00099496       0.00107959 
Cu      7.96508988       4.24054568      11.26300936       29       0.00021010       0.00121619      -0.00304107 
Cu      9.35698837      10.30247295      11.34616812       29      -0.00390669       0.00134616       0.00192386 
Cu     11.85426240       7.56675086      10.92889687       29       0.00065453      -0.00116952      -0.00084971 
Cu      7.35459498      11.19458229      10.52083625       29       0.00495408      -0.00343381       0.00161546 
Cu      9.47781164       4.18154049       9.23266271       29       0.00151992      -0.00384565       0.00127333 
Cu      5.44245780       7.70792131      11.47297508       29       0.00131985       0.00068271      -0.00138482 
Cu      5.79420302       5.37546351      10.63479863       29      -0.00396718       0.00022117       0.00220631 
Cu      9.87487645       7.84236326       9.57084711       29       0.00304058      -0.00162007      -0.00786867 
Cu      7.58339936       8.58659458      10.40035359       29       0.00283093      -0.00449073      -0.00215100 
Cu      7.95642438       6.12854942       9.68461770       29       0.00578176       0.00147360       0.00476095 
Cu     11.26669268       9.90909501       9.94200305       29      -0.00019908       0.00444509      -0.00234219 
Cu      5.37734998      10.06212401      11.03572900       29       0.00428165      -0.00269445      -0.00241735 
Cu      6.96354882       3.91461432       8.95676176       29      -0.00425036      -0.00017882      -0.00252659 
Cu      8.59452671       6.56365508       3.42020884       29      -0.00176223      -0.00022975      -0.00062476 
Cu      8.27666625       9.00311043       4.01066978       29      -0.00364856       0.00070407       0.00111650 
Cu      7.95353221      11.41821247       4.69389013       29      -0.00156793      -0.00371290      -0.00119766 
Cu      6.31789535       7.33704210       4.21917350       29       0.00245942      -0.00083221       0.00024848 
Cu      5.99268679       9.77647665       4.81744214       29       0.00026268       0.00355369       0.00274859 
Cu      4.08559469       8.14960492       5.10950785       29      -0.00010487       0.00148424      -0.00214123 
Cu     10.44206534       7.75031087       4.67632787       29       0.00034175       0.00221005       0.00329881 
Cu     10.13551834      10.18732273       5.26442896       29       0.00190925      -0.00588161       0.00121349 
Cu      7.27082753       5.09313391       4.99399812       29       0.00143966       0.00338397      -0.00365257 
Cu      6.26949311      11.50641852       6.59218258       29       0.00102483       0.00022006      -0.00095477 
Cu      8.26607144       7.25779154       5.76731764       29      -0.00106902       0.00429297      -0.00476670 
Cu      9.79560092       5.35685730       5.28696045       29       0.00141054       0.00058360      -0.00031272 
Cu      7.94707068       9.69416163       6.42542631       29       0.00241071      -0.00425875      -0.00641380 
Cu      4.99656986       5.88830306       5.83932504       29      -0.00052613      -0.00339901       0.00092946 
Cu     12.22823735       8.95409267       6.00460383       29      -0.00168719      -0.00030631      -0.00030438 
Cu      4.42365338       9.90108614       6.92995419       29       0.00065245       0.00050411       0.00354849 
Cu      9.14861022      11.81589271       6.88443943       29      -0.00255888      -0.00134136       0.00054318 
Cu      6.02435643       8.05608359       6.62252260       29      -0.00011648       0.00232555       0.00001227 
Cu     10.07168592       8.45992608       7.08085380       29       0.00360366      -0.00103305      -0.00525411 
Cu     11.63530546       6.55638582       6.57829494       29      -0.00412659       0.00421581       0.00377047 
Cu      3.81121393       7.38686115       7.48785108       29      -0.00222837      -0.00056655      -0.00131777 
Cu     11.16649371      10.60235787       7.60743901       29      -0.00245771       0.00239463      -0.00115287 
Cu      5.96693808       3.68907397       6.64335345       29       0.00080446       0.00036050      -0.00090753 
Cu      6.95957730       5.82672510       7.37156899       29      -0.00122837       0.00156445      -0.00153925 
Cu      5.02023778      11.60464311       8.96886064       29       0.00276938      -0.00108706       0.00047611 
Cu      8.47453729       3.91092562       6.90462292       29       0.00212085      -0.00425638       0.00435780 
Cu      6.43647876       9.79119726       8.51038209       29      -0.00394373       0.00069991      -0.00072309 
Cu      7.93982422       7.92896416       8.09466329       29      -0.00277185      -0.00020465      -0.00030043 
Cu      9.46863663       6.06699917       7.64873777       29       0.00300493       0.00025645       0.00704924 
Cu      7.45825472      12.35037732       8.49206445       29      -0.00194515       0.00260761       0.00200843 
Cu      8.92400622      10.05886555       8.75700322       29      -0.00013819      -0.00388007       0.00308371 
Cu      9.84681555      12.08992984       9.48203977       29       0.00078888      -0.00041844       0.00096086 
Cu      4.78296704       5.17111300       8.31028284       29      -0.00198927       0.00235028      -0.00086218 
Cu     12.14273581       8.20348543       8.41936338       29      -0.00086010      -0.00118673       0.00257072 
Cu      4.09018610       9.12817216       9.24500198       29      -0.00011293       0.00123923      -0.00428365 
Cu      5.76410995       7.33638112       9.06675736       29      -0.00079542      -0.00045942       0.00212058 
Cu     11.43092526       5.88562418       9.07846036       29      -0.00393905       0.00606775       0.00396493 
