55
Lattice="15.5095184895 0.0 0.0 0.0 15.5095184895 0.0 0.0 0.0 15.5095184895" Properties=species:S:1:pos:R:3:Z:I:1:forces:R:3 energy=-161.707616277 pbc="F F F"
Cu      6.64351679       6.56866920      11.59318741       29      -0.00238105       0.00034718      -0.00031961 
Cu      8.99995265       7.35585811      11.57386194       29      -0.00417084      -0.00101208       0.00143595 
Cu      4.94749737       8.20660404      11.46329766       29       0.00195677       0.00222484      -0.00112528 
Cu      6.45629855       4.34811364      10.70086487       29       0.00049303      -0.00158819      -0.00222134 
Cu      4.26645646       5.89537390      10.57233917       29       0.00296410       0.00063833      -0.00243123 
Cu      8.44668731       5.11107470      12.28164107       29       0.00049089      -0.00592563       0.00014533 
Cu      9.49607810       9.65938646      11.07573618       29       0.00068341       0.00083982       0.00053707 
Cu      5.41528134      10.41589764      10.52676412       29      -0.00113002      -0.00263767      -0.00045570 
Cu      8.93192050       3.43921380      10.70508704       29      -0.00151469       0.00318932       0.00045239 
Cu      7.74460435      11.23350924      10.65812234       29      -0.00046263      -0.00130655       0.00637023 
Cu      8.21008277       5.80058800       9.66911601       29      -0.00096146      -0.00310001       0.00394801 
Cu     11.85468949       8.69164680       7.82659167       29      -0.00400406      -0.00214193      -0.00011931 
Cu      7.27440379       8.70084121      10.39527338       29       0.00128595      -0.00060091      -0.00130875 
Cu      8.14655026       6.41978167       3.22787742       29      -0.00186791      -0.00002860       0.00167669 
Cu      7.50375234       8.74311254       3.83475403       29      -0.00113330      -0.00065938      -0.00123976 
Cu      6.87489138      11.07240436       4.46861715       29       0.00102210       0.00060916       0.00420307 
Cu      5.87791849       6.80817046       4.28396874       29       0.00105077      -0.00269547       0.00224234 
Cu      9.88302292       7.93535667       4.30141744       29       0.00053675      -0.00060185       0.00058968 
Cu      5.24397327       9.15201717       4.87253884       29      -0.00020428      -0.00100271       0.00211043 
Cu      9.22077612      10.27878389       4.88580271       29      -0.00036250       0.00327833       0.00272804 
Cu      7.23186392       4.80638428       4.92055264       29      -0.00080022       0.00010641      -0.00249717 
Cu      9.73181283       5.48662268       4.91542629       29      -0.00050903      -0.00222232       0.00108278 
Cu      3.65482900       7.20150577       5.39967877       29       0.00161505       0.00275586      -0.00034157 
Cu     11.56397166       9.43607749       5.42949196       29       0.00122438      -0.00116420      -0.00152829 
Cu      7.97171897       7.08445295       5.64616129       29      -0.00595756      -0.00168894       0.00226198 
Cu      7.33695065       9.39914518       6.28142586       29      -0.00113659       0.00301441      -0.00305929 
Cu      4.97466776       5.20989020       6.07542033       29      -0.00078756       0.00207104      -0.00125771 
Cu     11.45376900       6.98438740       6.04001020       29       0.00223764      -0.00024599      -0.00014918 
Cu      5.46306146      11.04144618       6.51074367       29       0.00098772      -0.00039342       0.00147471 
Cu      7.99739605      11.73023363       6.64239766       29       0.00238178      -0.00247898      -0.00041751 
Cu      5.74821018       7.49764592       6.71994643       29       0.00374411      -0.00180499      -0.00060220 
Cu      9.65810801       8.60276899       6.76772189       29       0.00340601       0.00432823       0.00106693 
Cu      3.85339839       9.09514228       6.96433157       29       0.00178269      -0.00154938      -0.00167427 
Cu     10.34471448      10.97541659       6.98796854       29      -0.00074690       0.00183657      -0.00331672 
Cu      6.32422415       3.21696528       6.62371604       29      -0.00065403      -0.00263715      -0.00205340 
Cu      8.83804430       3.82213478       6.54736456       29       0.00182172      -0.00073539       0.00295204 
Cu     11.30580362       4.55947945       6.60809680       29      -0.00103212       0.00249207      -0.00067185 
Cu      7.10651155       5.49001819       7.36701085       29      -0.00041580       0.00321313      -0.00275947 
Cu      9.51044278       6.14341203       7.38058770       29       0.00384912      -0.00497746      -0.00043229 
Cu      3.78760358       6.54304225       7.89895510       29       0.00061198       0.00167540      -0.00074283 
Cu      7.82514508       7.73157538       8.12243691       29      -0.00417710      -0.00014456      -0.00757422 
Cu     10.84138580      10.40213282       9.26461575       29       0.00151154       0.00094989      -0.00324673 
Cu      5.97208741       9.37190334       8.35745263       29      -0.00087245       0.00228787      -0.00061928 
Cu      8.47064998      10.01068829       8.55350818       29       0.00077762       0.00333555      -0.00134163 
Cu      4.06649675      10.98410907       8.57104861       29      -0.00257159       0.00060085       0.00006143 
Cu      6.53409372      11.77630170       8.63355028       29      -0.00022597      -0.00281777      -0.00040966 
Cu      5.19298466       4.54814712       8.56239012       29       0.00133379       0.00689311       0.00154785 
Cu     11.66560267       6.23052498       8.50293592       29       0.00186097       0.00089295       0.00022452 
Cu      5.88936437       6.91718445       9.22131107       29      -0.00530987      -0.00377085       0.00267051 
Cu      9.95115704       7.89680938       9.31146641       29       0.00321351      -0.00142002       0.00222863 
Cu      7.59194413       3.48063606       8.69276400       29       0.00153930      -0.00184186       0.00157922 
Cu     10.06268663       4.16306534       8.69455063       29       0.00124972       0.00353654       0.00034613 
Cu      3.87587894       8.53236156       9.36297967       29       0.00005525      -0.00173008       0.00523418 
Cu      9.13787561      12.29255321       8.85086549       29      -0.00067768       0.00550246      -0.00703696 
Cu     10.44776916       5.60616671      10.64428017       29      -0.00162044      -0.00169496       0.00178309 
