55
Lattice="16.1712441698 0.0 0.0 0.0 16.1712441698 0.0 0.0 0.0 16.1712441698" Properties=species:S:1:pos:R:3:Z:I:1:forces:R:3 energy=-161.697883202 pbc="F F F"
Cu      8.02587182       7.78295278      13.01070004       29       0.00033374       0.00108757       0.00068060 
Cu     10.23101540       7.61672736      11.70761607       29       0.00106252       0.00185183       0.00141850 
Cu      8.97823642       9.87102395      11.94619329       29      -0.00053884      -0.00058083      -0.00032469 
Cu      8.43605453       5.75014740      11.52599430       29       0.00116724      -0.00226612       0.00096337 
Cu      6.41446493       9.43963493      11.88641133       29      -0.00043249      -0.00055744      -0.00172221 
Cu     12.32575839       7.47691574      10.18980995       29       0.00113847       0.00055412      -0.00089121 
Cu     11.18638720       9.71779777      10.51341574       29       0.00021029      -0.00086999      -0.00054274 
Cu      6.09153155       6.86726810      11.63631483       29      -0.00249531      -0.00093543      -0.00086080 
Cu     10.61522587       5.60567809      10.11443689       29       0.00013218       0.00096054      -0.00083824 
Cu      8.03809421       8.03615529      10.59526707       29       0.00402856       0.00327468       0.00031640 
Cu      7.37342446      11.54066084      10.71391778       29      -0.00159958      -0.00044821      -0.00106567 
Cu      8.81967230       3.82738304       9.83919470       29       0.00090004       0.00259220      -0.00023918 
Cu      6.50079748       4.84762529      10.04857216       29      -0.00069771      -0.00137758       0.00126995 
Cu     10.12774367       7.89591332       9.25953279       29      -0.00237803       0.00009602      -0.00185119 
Cu      4.86610990      11.06269046      10.46197772       29       0.00051912      -0.00259607      -0.00083844 
Cu      8.97577317      10.12093330       9.51053912       29       0.00034334      -0.00109948       0.00015509 
Cu      4.49430341       8.51195672      10.41454085       29       0.00041300       0.00000791      -0.00018642 
Cu      4.23806373       5.99212514      10.06871846       29      -0.00291203      -0.00027581      -0.00117448 
Cu      8.41436935       6.09738906       9.08835890       29       0.00094060      -0.00516018       0.00027580 
Cu     12.07915306       8.99018055       8.14209476       29      -0.00072583       0.00077734       0.00062796 
Cu     10.90102123      11.13725876       8.31644463       29       0.00200749       0.00002987      -0.00049116 
Cu     11.69445770       6.48128461       7.90990263       29      -0.00076286      -0.00012542      -0.00031396 
Cu      6.52015787       9.60867852       9.44128140       29      -0.00214444      -0.00051490       0.00039755 
Cu      6.16992407       7.16250627       9.19279771       29      -0.00000875       0.00062541      -0.00063312 
Cu      8.63668059      12.32976610       8.44480356       29      -0.00173540       0.00072184      -0.00050969 
Cu      9.99172919       4.70384546       7.73742832       29      -0.00083174      -0.00022672       0.00276757 
Cu      8.04146844       8.29443780       8.09847765       29      -0.00174118      -0.00935891      -0.00194205 
Cu      6.08011917       7.57275117       4.33672427       29      -0.00028718       0.00045912      -0.00064164 
Cu      8.01806950       8.74173266       3.16054413       29      -0.00006539       0.00230914       0.00003586 
Cu      4.23094594       6.41369286       5.71644588       29      -0.00201403      -0.00055277      -0.00197925 
Cu      4.48706078       8.95186603       5.84900295       29      -0.00186892       0.00032039      -0.00096471 
Cu      8.42330280       6.45004281       4.22298829       29       0.00063533      -0.00108005       0.00030371 
Cu      4.87032431      11.46891048       6.28487778       29       0.00129075       0.00033941       0.00007427 
Cu      8.98728748      10.59855994       4.61756333       29      -0.00178748      -0.00025437       0.00055809 
Cu      6.49072410       5.28611164       5.50796573       29      -0.00036811      -0.00044279       0.00136857 
Cu     10.21936738       8.31420325       4.39402397       29       0.00201159       0.00067369       0.00031611 
Cu      8.02939861       8.51190506       5.57383320       29       0.00066696      -0.00091857      -0.00144439 
Cu      7.40001821      11.98843859       6.13242868       29      -0.00010198      -0.00132094      -0.00056506 
Cu      8.80714198       4.24215256       5.51277514       29       0.00109736      -0.00153772       0.00027056 
Cu      6.16676549       7.39445514       6.79506546       29       0.00241422      -0.00096066       0.00038537 
Cu      6.41521275      10.15004448       4.58120198       29      -0.00093367      -0.00119747       0.00249272 
Cu      3.97292224       7.46764488       8.01456081       29      -0.00010080       0.00162564      -0.00132557 
Cu      4.36658537       9.86774647       8.24176927       29       0.00024920       0.00085870       0.00126289 
Cu      9.92903670      12.34386113       6.25669203       29       0.00122162       0.00030931      -0.00080614 
Cu     10.60752147       6.03058952       5.57344661       29      -0.00084554       0.00279373      -0.00118011 
Cu      5.25361409       5.29288606       7.80275970       29      -0.00091683      -0.00131147       0.00006192 
Cu     11.17734731      10.15495272       5.94850377       29       0.00024356      -0.00076148      -0.00117958 
Cu      8.40652889       6.32719862       6.68591288       29      -0.00002893       0.00313401       0.00085234 
Cu      6.24171092      11.85023711       8.42894494       29       0.00209477      -0.00056024      -0.00024656 
Cu      8.94524267      10.28488368       7.06697911       29       0.00078949       0.00147588      -0.00142231 
Cu     12.32042867       7.88316823       5.84933089       29      -0.00003055       0.00133515       0.00108280 
Cu      3.84548578      12.22471901       8.46511543       29       0.00034596       0.00316069       0.00164143 
Cu     10.12658766       8.10798638       6.84962028       29      -0.00017721       0.00017053       0.00020245 
Cu      7.47891660       4.23840085       7.69835413       29       0.00076429       0.00003196       0.00236226 
Cu      6.50848801       9.83751709       7.00947790       29       0.00150912       0.00571497       0.00403643 
