55
Lattice="15.70861784 0.0 0.0 0.0 15.70861784 0.0 0.0 0.0 15.70861784" Properties=species:S:1:pos:R:3:Z:I:1:magmoms:R:1:tags:I:1:forces:R:3 energy=-162.285148326 pbc="F F F"
Cu      9.48516809       8.90455141      12.28531112       29       0.00000000        0      -0.00030292      -0.00023152      -0.00469298 
Cu      7.03724899       8.43116500      11.94147761       29       0.00000000        0      -0.00020268      -0.00086888       0.00045898 
Cu      4.57128382       8.00469037      11.44852839       29       0.00000000        0      -0.00029049      -0.00007561      -0.00093623 
Cu      8.72049528       6.55343865      11.71911390       29       0.00000000        0      -0.00067816      -0.00014246      -0.00055464 
Cu      6.23096498       6.10833885      11.29712482       29       0.00000000        0       0.00043763       0.00130307       0.00067807 
Cu      7.91632150       4.24399032      11.06981747       29       0.00000000        0      -0.00017918       0.00173917      -0.00261374 
Fe      8.13501528      10.61694884      10.97067117       26       0.00000000        0      -0.00023085       0.00237012       0.00183402 
Fe      5.70715131      10.14398609      10.71566023       26       0.00000000        0       0.00221330       0.00074004      -0.00051853 
Cu     10.86207367       7.46666095      10.71253949       29       0.00000000        0       0.00046623      -0.00119798       0.00030162 
Cu      4.36268763       6.25459571       9.60147812       29       0.00000000        0      -0.00191136       0.00187651      -0.00008178 
Cu      8.62967619       8.41808233      10.01864449       29       0.00000000        0      -0.00089503      -0.00069835       0.00295198 
Cu     10.06804601       5.12209897      10.09216234       29       0.00000000        0      -0.00042559      -0.00105850       0.00373600 
Cu     10.58205630       9.94540840      10.27254733       29       0.00000000        0      -0.00085606      -0.00036694      -0.00033440 
Cu      6.18403988       7.98863113       9.59546050       29       0.00000000        0      -0.00267718       0.00215179      -0.00121694 
Cu      6.05489655       4.39056524       9.36969772       29       0.00000000        0      -0.00202129      -0.00062638      -0.00076963 
Cu      6.73998675      12.26202047       9.54711774       29       0.00000000        0       0.00096610      -0.00080405       0.00217552 
Fe      3.86720984       8.70687361       9.12614743       26       0.00000000        0       0.00155397      -0.00161686      -0.00060467 
Cu      7.85471523       6.09576234       9.41959770       29       0.00000000        0      -0.00050086       0.00059162       0.00219070 
Cu      7.21923377      10.13840947       8.60167824       29       0.00000000        0       0.00038826       0.00242471       0.00058906 
Cu     10.58349154       4.71056362       7.62773700       29       0.00000000        0       0.00276688      -0.00276120      -0.00219523 
Fe      9.28217275      11.67512191       9.03593083       26       0.00000000        0      -0.00083561      -0.00002416       0.00011456 
Cu     12.17277222       6.05718561       9.06816184       29       0.00000000        0       0.00087114       0.00013839      -0.00165965 
Fe      4.73403108      10.90691443       8.65249124       26       0.00000000        0      -0.00515884      -0.00035197      -0.00160537 
Cu      9.97122768       6.99513227       8.42466298       29       0.00000000        0       0.00355800       0.00703411       0.00511649 
Cu      4.22432188       4.61438180       7.64330594       29       0.00000000        0       0.00166059      -0.00079097       0.00098799 
Cu     11.90374059       8.52940431       8.62667811       29       0.00000000        0       0.00093233      -0.00021257      -0.00123441 
Cu      6.00872513       6.29520331       7.69359779       29       0.00000000        0      -0.00114850       0.00378324       0.00214435 
Fe      8.81314345       6.99575910       3.80363593       26       0.00000000        0       0.00348335      -0.00341929      -0.00215064 
Cu      6.17603796       6.81012581       3.42330672       29       0.00000000        0      -0.00139822       0.00152093       0.00285976 
Fe      7.57685363       5.06481354       4.74870036       26       0.00000000        0      -0.00237761       0.00032932       0.00137859 
Fe      7.50237006       8.99500595       3.63539390       26       0.00000000        0       0.00107576      -0.00100464       0.00226902 
Cu     11.22727024       7.57162390       4.35390168       29       0.00000000        0       0.00117322       0.00195829      -0.00312371 
Fe      4.37160238       7.66229157       5.07430043       26       0.00000000        0       0.00130145       0.00118503      -0.00109870 
Fe      9.73750562       9.58501588       4.44520201       26       0.00000000        0       0.00075742       0.00266318       0.00160718 
Fe      5.24501252       5.46712448       5.48917567       26       0.00000000        0      -0.00195565       0.00110072      -0.00026495 
Fe      5.54786788       9.66574009       4.81215272       26       0.00000000        0      -0.00091855      -0.00206941      -0.00114517 
Cu      8.93365126       3.44659737       6.17197652       29       0.00000000        0       0.00045917       0.00100401      -0.00016953 
Cu      6.94560235       7.43520696       5.57181485       29       0.00000000        0      -0.00321125      -0.00398754      -0.00577478 
Fe      7.79459141      12.17415178       7.21634578       26       0.00000000        0      -0.00101987       0.00059645       0.00006753 
Cu     10.13213541       5.46112651       5.25372566       29       0.00000000        0       0.00032198      -0.00285256       0.00065624 
Fe      9.89413444      11.26157333       6.32716060       26       0.00000000        0      -0.00243120       0.00255988       0.00049322 
Cu      5.60400442       8.77801688       7.22768959       29       0.00000000        0       0.00433370       0.00045101       0.00224464 
Cu     11.73294938       6.80792475       6.69760910       29       0.00000000        0      -0.00123074      -0.00038711       0.00027812 
Cu     11.47846967       9.28200094       6.25395532       29       0.00000000        0      -0.00103204       0.00100902      -0.00051708 
Cu      8.35272220       5.70639770       6.97979754       29       0.00000000        0       0.00186317       0.00041906      -0.00104995 
Cu     11.56968445      10.98326586       8.17138170       29       0.00000000        0      -0.00154470      -0.00115373       0.00215970 
Fe      7.79289339       9.82775091       6.08790865       26       0.00000000        0       0.00222301       0.00256345       0.00140284 
Fe      3.68866999       7.06016720       7.30065376       26       0.00000000        0       0.00114545      -0.00144823      -0.00023013 
Cu      3.53584562       9.67168453       6.61001908       29       0.00000000        0      -0.00252788       0.00005817       0.00081594 
Cu      9.46777304       7.77827665       6.05781100       29       0.00000000        0      -0.00059257      -0.00468000      -0.00454333 
Cu      6.58489944       3.94601009       6.92609450       29       0.00000000        0      -0.00041372      -0.00218937       0.00158207 
Cu      9.63800543       9.47516829       7.96138836       29       0.00000000        0       0.00257862      -0.00106768      -0.00094786 
Fe      5.69625470      11.26190449       6.54669685       26       0.00000000        0       0.00396675      -0.00335234       0.00154421 
Cu      8.44308978       3.79895121       8.63612511       29       0.00000000        0      -0.00165218      -0.00055754      -0.00283275 
Cu      7.79783630       7.94517939       7.77363345       29       0.00000000        0       0.00012330      -0.00157346       0.00022838 
