55
Lattice="15.3835771733 0.0 0.0 0.0 15.3835771733 0.0 0.0 0.0 15.3835771733" Properties=species:S:1:pos:R:3:Z:I:1:forces:R:3 energy=-162.241795789 pbc="F F F"
Cu      9.45393733       5.81929645      11.98516157       29       0.00388121      -0.00295892       0.00603927 
Cu      7.11627066       6.85350804      11.93027695       29      -0.00342957      -0.00047556       0.00066040 
Cu      9.22533979       8.32120867      11.50653849       29      -0.00147475       0.00089819       0.00091425 
Cu      7.55159567       4.50131045      10.89885639       29       0.00025168      -0.00230549      -0.00411380 
Cu      4.77475280       7.92347695      11.63438101       29       0.00599830       0.00033147      -0.00097760 
Cu     10.96498439       6.87663878      10.21460003       29       0.00105758       0.00249948      -0.00814499 
Cu      6.84955099       9.37687263      11.34952164       29       0.00085629      -0.00309827      -0.00018790 
Cu      9.92963874       4.51663172       9.83515912       29       0.00293027      -0.00223128      -0.00336754 
Cu      8.89757586      10.79258948      10.80751080       29      -0.00068622       0.00124771      -0.00036253 
Cu      5.18450828       5.57135514      10.74450282       29      -0.00007826       0.00075623      -0.00246331 
Cu      8.51272483       6.56682972       9.88290308       29      -0.00170593       0.00299028      -0.00502827 
Cu     10.68286387       9.40039795       9.63980847       29       0.00244458       0.00079497       0.00163996 
Cu      5.63043546       3.33023400       9.61727762       29      -0.00147740       0.00002388      -0.00166608 
Cu      6.24550273       7.57983978       9.74572907       29      -0.00198201       0.00499440       0.00078490 
Cu      7.98928806       3.24749237       8.65621829       29       0.00025549      -0.00209339       0.00116846 
Cu     12.29669405       7.97175811       8.28131581       29      -0.00089792       0.00207634      -0.00055261 
Cu      8.25393186       8.98029788       9.34218819       29      -0.00046882       0.00561692       0.00383652 
Cu     11.38560981       5.61313874       7.97667284       29       0.00043140       0.00050233      -0.00005095 
Cu      4.82079905       9.62905528       9.71935875       29       0.00205985       0.00146395      -0.00376324 
Cu      6.66239331       5.34182267       8.76211335       29       0.00205375       0.00067986       0.00120724 
Cu     10.27760946       3.36233668       7.54005039       29      -0.00394089       0.00033378       0.00297206 
Cu      6.82423395      11.02659889       9.31612641       29      -0.00092975      -0.00651337       0.00052226 
Cu      3.79721583       7.29887049       9.34791533       29       0.00496680       0.00215571      -0.00290412 
Cu      9.91285359       7.60649882       8.10959716       29       0.00434571      -0.00171287       0.00448385 
Cu      8.92759540       5.35745408       7.74805775       29       0.00309222      -0.00280131       0.00259691 
Cu      9.17327333      11.03782328       8.26879370       29      -0.00092673       0.00067403      -0.00078010 
Cu      4.21552521       5.06736772       8.36548322       29      -0.00074859      -0.00369645      -0.00161063 
Cu      5.60386368       8.87920828       3.39841560       29      -0.00072673       0.00042191      -0.00556357 
Cu      8.10920875       9.14723314       3.84241605       29       0.00024399       0.00112611      -0.00147041 
Cu      7.07434624       6.78770901       3.46300596       29       0.00260455      -0.00259154       0.00108118 
Cu     10.60793904       9.31729369       4.50829886       29      -0.00250550       0.00008502       0.00022351 
Cu      9.61002043       7.02861285       4.00892867       29      -0.00187403      -0.00292506       0.00354561 
Cu      6.36991844      10.59162039       5.13545667       29       0.00058536      -0.00388548       0.00277022 
Cu      8.58786798       4.70756715       3.76868359       29      -0.00234170       0.00071872       0.00208566 
Cu      4.69654302       6.77026572       4.52627970       29      -0.00042285      -0.00376102      -0.00064833 
Cu      8.90762868      10.81450020       5.67363602       29      -0.00061672      -0.00073115       0.00421936 
Cu      4.26016926       9.12131638       5.56048385       29      -0.00111363       0.00033847      -0.00276125 
Cu      6.54714693       8.12899722       5.49894398       29       0.00461319       0.00494195       0.00398282 
Cu      6.21289875       4.65934999       4.69080652       29      -0.00216101       0.00062975      -0.00082467 
Cu      7.20930170      12.13608481       7.03669181       29      -0.00136745       0.00233634       0.00024740 
Cu      8.97239756       8.35631028       6.00832337       29      -0.00493808      -0.00270687      -0.00616866 
Cu      7.98757665       6.10811003       5.64624749       29       0.00327491      -0.00289354      -0.00348726 
Cu     10.27292125       5.10746209       5.66035300       29       0.00231533      -0.00066723       0.00111382 
Cu      3.94122152       4.67134995       5.84456244       29       0.00168054       0.00501964       0.00301326 
Cu      8.19184317       3.65758830       6.07596354       29      -0.00226817      -0.00084045       0.00449285 
Cu      5.07487164      10.78677507       7.38476011       29      -0.00184516       0.00447667       0.00248942 
Cu     11.25435105       7.34874602       6.02149124       29       0.00412582      -0.00256205      -0.00332014 
Cu      3.40940386       6.98322201       6.77732127       29      -0.00011010      -0.00036710       0.00135648 
Cu      7.31486939       9.72974913       7.24000187       29      -0.00319092      -0.00089327      -0.00136079 
Cu      5.72272856       6.08921883       6.65859982       29      -0.00807620       0.00117339       0.00035965 
Cu      5.93340480       3.64090624       7.08870806       29      -0.00005202      -0.00151200      -0.00460633 
Cu      3.08688312       9.26600505       7.86430203       29       0.00047199      -0.00015641      -0.00062283 
Cu      5.30497423       8.32948741       7.64454906       29      -0.00059966      -0.00367936       0.00091759 
Cu     10.82676155       9.66852527       7.03860571       29       0.00063001       0.00334544       0.00689887 
Cu      7.53042594       7.34738048       7.69044066       29      -0.00221407       0.00540650       0.00118409 
