55
Lattice="30.830000000000002 0.0 0.0 0.0 30.830000000000002 0.0 0.0 0.0 30.830000000000002" Properties=species:S:1:pos:R:3:tags:I:1:initial_magmoms:R:1:forces:R:3 energy=nan pbc="F F F"
Au      10.00000000      15.41500000      17.22000000        0       0.00000000              nan              nan              nan
Au      10.00000000      17.22000000      15.41500000        0       0.00000000              nan              nan              nan
Au      11.80500000      13.61000000      17.22000000        0       0.00000000              nan              nan              nan
Au      13.61000000      11.80500000      17.22000000        0       0.00000000              nan              nan              nan
Au      13.61000000      13.61000000      15.41500000        0       0.00000000              nan              nan              nan
Au      13.61000000      13.61000000      19.02500000        0       0.00000000              nan              nan              nan
Au      11.80500000      17.22000000      13.61000000        0       0.00000000              nan              nan              nan
Au      13.61000000      15.41500000      13.61000000        0       0.00000000              nan              nan              nan
Au      13.61000000      17.22000000      11.80500000        0       0.00000000              nan              nan              nan
Au      11.80500000      15.41500000      15.41500000        0       0.00000000              nan              nan              nan
Au      11.80500000      17.22000000      17.22000000        0       0.00000000              nan              nan              nan
Au      13.61000000      15.41500000      17.22000000        0       0.00000000              nan              nan              nan
Au      13.61000000      17.22000000      15.41500000        0       0.00000000              nan              nan              nan
Au      11.80500000      15.41500000      19.02500000        0       0.00000000              nan              nan              nan
Au      13.61000000      15.41500000      20.83000000        0       0.00000000              nan              nan              nan
Au      13.61000000      17.22000000      19.02500000        0       0.00000000              nan              nan              nan
Au      13.61000000      19.02500000      13.61000000        0       0.00000000              nan              nan              nan
Au      11.80500000      19.02500000      15.41500000        0       0.00000000              nan              nan              nan
Au      13.61000000      19.02500000      17.22000000        0       0.00000000              nan              nan              nan
Au      13.61000000      20.83000000      15.41500000        0       0.00000000              nan              nan              nan
Au      15.41500000      10.00000000      17.22000000        0       0.00000000              nan              nan              nan
Au      17.22000000      10.00000000      15.41500000        0       0.00000000              nan              nan              nan
Au      15.41500000      13.61000000      13.61000000        0       0.00000000              nan              nan              nan
Au      17.22000000      11.80500000      13.61000000        0       0.00000000              nan              nan              nan
Au      17.22000000      13.61000000      11.80500000        0       0.00000000              nan              nan              nan
Au      15.41500000      11.80500000      15.41500000        0       0.00000000              nan              nan              nan
Au      15.41500000      13.61000000      17.22000000        0       0.00000000              nan              nan              nan
Au      17.22000000      11.80500000      17.22000000        0       0.00000000              nan              nan              nan
Au      17.22000000      13.61000000      15.41500000        0       0.00000000              nan              nan              nan
Au      15.41500000      11.80500000      19.02500000        0       0.00000000              nan              nan              nan
Au      15.41500000      13.61000000      20.83000000        0       0.00000000              nan              nan              nan
Au      17.22000000      13.61000000      19.02500000        0       0.00000000              nan              nan              nan
Au      15.41500000      17.22000000      10.00000000        0       0.00000000              nan              nan              nan
Au      17.22000000      15.41500000      10.00000000        0       0.00000000              nan              nan              nan
Au      15.41500000      15.41500000      11.80500000        0       0.00000000              nan              nan              nan
Au      15.41500000      17.22000000      13.61000000        0       0.00000000              nan              nan              nan
Au      17.22000000      15.41500000      13.61000000        0       0.00000000              nan              nan              nan
Au      17.22000000      17.22000000      11.80500000        0       0.00000000              nan              nan              nan
Au      15.41500000      15.41500000      15.41500000        0       0.00000000              nan              nan              nan
Au      15.41500000      17.22000000      17.22000000        0       0.00000000              nan              nan              nan
Au      17.22000000      15.41500000      17.22000000        0       0.00000000              nan              nan              nan
Au      17.22000000      17.22000000      15.41500000        0       0.00000000              nan              nan              nan
Au      15.41500000      15.41500000      19.02500000        0       0.00000000              nan              nan              nan
Au      15.41500000      19.02500000      11.80500000        0       0.00000000              nan              nan              nan
Au      15.41500000      20.83000000      13.61000000        0       0.00000000              nan              nan              nan
Au      17.22000000      19.02500000      13.61000000        0       0.00000000              nan              nan              nan
Au      15.41500000      19.02500000      15.41500000        0       0.00000000              nan              nan              nan
Au      19.02500000      13.61000000      13.61000000        0       0.00000000              nan              nan              nan
Au      19.02500000      11.80500000      15.41500000        0       0.00000000              nan              nan              nan
Au      19.02500000      13.61000000      17.22000000        0       0.00000000              nan              nan              nan
Au      20.83000000      13.61000000      15.41500000        0       0.00000000              nan              nan              nan
Au      19.02500000      15.41500000      11.80500000        0       0.00000000              nan              nan              nan
Au      19.02500000      17.22000000      13.61000000        0       0.00000000              nan              nan              nan
Au      20.83000000      15.41500000      13.61000000        0       0.00000000              nan              nan              nan
Au      19.02500000      15.41500000      15.41500000        0       0.00000000              nan              nan              nan
