55
Lattice="32.61480122767132 0.0 0.0 0.0 32.595360766481896 0.0 0.0 0.0 27.657966440250313" Properties=species:S:1:pos:R:3:tags:I:1:initial_magmoms:R:1:forces:R:3 energy=nan pbc="F F F"
Au      16.30740061      15.96336729      10.00000000        0       0.00000000              nan              nan              nan
Au      16.30740061      15.96336729      12.55265548        0       0.00000000              nan              nan              nan
Au      16.30740061      15.96336729      15.10531096        0       0.00000000              nan              nan              nan
Au      16.30740061      15.96336729      17.65796644        0       0.00000000              nan              nan              nan
Au      18.40986749      16.64650019      11.27632774        0       0.00000000              nan              nan              nan
Au      18.40986749      16.64650019      13.82898322        0       0.00000000              nan              nan              nan
Au      18.40986749      16.64650019      16.38163870        0       0.00000000              nan              nan              nan
Au      16.30740061      18.17403178      11.27632774        0       0.00000000              nan              nan              nan
Au      16.30740061      18.17403178      13.82898322        0       0.00000000              nan              nan              nan
Au      16.30740061      18.17403178      16.38163870        0       0.00000000              nan              nan              nan
Au      14.20493374      16.64650019      11.27632774        0       0.00000000              nan              nan              nan
Au      14.20493374      16.64650019      13.82898322        0       0.00000000              nan              nan              nan
Au      14.20493374      16.64650019      16.38163870        0       0.00000000              nan              nan              nan
Au      15.00800463      14.17490214      11.27632774        0       0.00000000              nan              nan              nan
Au      15.00800463      14.17490214      13.82898322        0       0.00000000              nan              nan              nan
Au      15.00800463      14.17490214      16.38163870        0       0.00000000              nan              nan              nan
Au      17.60679660      14.17490214      11.27632774        0       0.00000000              nan              nan              nan
Au      17.60679660      14.17490214      13.82898322        0       0.00000000              nan              nan              nan
Au      17.60679660      14.17490214      16.38163870        0       0.00000000              nan              nan              nan
Au      20.51233436      17.32963308      12.55265548        0       0.00000000              nan              nan              nan
Au      20.51233436      17.32963308      15.10531096        0       0.00000000              nan              nan              nan
Au      18.40986749      18.85716468      12.55265548        0       0.00000000              nan              nan              nan
Au      18.40986749      18.85716468      15.10531096        0       0.00000000              nan              nan              nan
Au      16.30740061      20.38469627      12.55265548        0       0.00000000              nan              nan              nan
Au      16.30740061      20.38469627      15.10531096        0       0.00000000              nan              nan              nan
Au      14.20493374      18.85716468      12.55265548        0       0.00000000              nan              nan              nan
Au      14.20493374      18.85716468      15.10531096        0       0.00000000              nan              nan              nan
Au      12.10246687      17.32963308      12.55265548        0       0.00000000              nan              nan              nan
Au      12.10246687      17.32963308      15.10531096        0       0.00000000              nan              nan              nan
Au      12.90553776      14.85803504      12.55265548        0       0.00000000              nan              nan              nan
Au      12.90553776      14.85803504      15.10531096        0       0.00000000              nan              nan              nan
Au      13.70860864      12.38643700      12.55265548        0       0.00000000              nan              nan              nan
Au      13.70860864      12.38643700      15.10531096        0       0.00000000              nan              nan              nan
Au      16.30740061      12.38643700      12.55265548        0       0.00000000              nan              nan              nan
Au      16.30740061      12.38643700      15.10531096        0       0.00000000              nan              nan              nan
Au      18.90619259      12.38643700      12.55265548        0       0.00000000              nan              nan              nan
Au      18.90619259      12.38643700      15.10531096        0       0.00000000              nan              nan              nan
Au      19.70926347      14.85803504      12.55265548        0       0.00000000              nan              nan              nan
Au      19.70926347      14.85803504      15.10531096        0       0.00000000              nan              nan              nan
Au      22.61480123      18.01276598      13.82898322        0       0.00000000              nan              nan              nan
Au      20.51233436      19.54029758      13.82898322        0       0.00000000              nan              nan              nan
Au      18.40986749      21.06782917      13.82898322        0       0.00000000              nan              nan              nan
Au      16.30740061      22.59536077      13.82898322        0       0.00000000              nan              nan              nan
Au      14.20493374      21.06782917      13.82898322        0       0.00000000              nan              nan              nan
Au      12.10246687      19.54029758      13.82898322        0       0.00000000              nan              nan              nan
Au      10.00000000      18.01276598      13.82898322        0       0.00000000              nan              nan              nan
Au      10.80307088      15.54116794      13.82898322        0       0.00000000              nan              nan              nan
Au      11.60614177      13.06956990      13.82898322        0       0.00000000              nan              nan              nan
Au      16.28633412      10.00000000      11.69310396        0       0.00000000              nan              nan              nan
Au      12.40921265      10.59797186      13.82898322        0       0.00000000              nan              nan              nan
Au      15.00800463      10.59797186      13.82898322        0       0.00000000              nan              nan              nan
Au      17.60679660      10.59797186      13.82898322        0       0.00000000              nan              nan              nan
Au      20.20558857      10.59797186      13.82898322        0       0.00000000              nan              nan              nan
Au      21.00865946      13.06956990      13.82898322        0       0.00000000              nan              nan              nan
Au      21.81173034      15.54116794      13.82898322        0       0.00000000              nan              nan              nan
