78
Lattice="17.0968756003 0.0 0.0 0.0 17.0968756003 0.0 0.0 0.0 17.0968756003" Properties=species:S:1:pos:R:3:Z:I:1:forces:R:3 energy=-234.675036233 pbc="F F F"
Cu      6.33137764       7.81563512      13.49340745       29       0.00062363       0.00208280       0.00413510 
Cu      4.77735488       9.44797360      12.36368506       29       0.00020068       0.00025528       0.00136868 
Cu      8.78513628       8.38507786      13.78220566       29      -0.00023383      -0.00062726       0.00250282 
Cu      7.22298391      10.03967702      12.66919044       29      -0.00053259       0.00092588       0.00057478 
Cu      5.66884083      11.65000562      11.46427460       29      -0.00204860       0.00057939      -0.00014886 
Cu     11.24015722       8.94005350      13.97317333       29      -0.00013423      -0.00513263      -0.00025294 
Cu      9.70934811      10.59322327      12.87525419       29       0.00066614      -0.00257300      -0.00047150 
Cu      8.14833310      12.22635963      11.70447388       29      -0.00187724      -0.00012456      -0.00062829 
Cu      6.59707715      13.79454923      10.50193029       29      -0.00355911       0.00024672       0.00076765 
Cu      8.09557865       6.01878770      13.18732293       29      -0.00218134      -0.00187872       0.00088672 
Cu      3.95777073      10.34001370      10.13548732       29      -0.00090977       0.00033466       0.00079041 
Cu     10.55032172       6.59909435      13.39428511       29      -0.00180612      -0.00402200       0.00095928 
Cu      5.27547859       7.23500796      11.31163233       29       0.00149784      -0.00041616       0.00337854 
Cu      4.88193577      12.50845274       9.18766931       29      -0.00323651       0.00070252      -0.00148315 
Cu      7.79673900       7.81124723      11.53009114       29      -0.00090687      -0.00038445       0.00147658 
Cu      6.24282503       9.43692563      10.40217032       29      -0.00098090      -0.00005864       0.00027557 
Cu     12.02461267      10.14817036      11.89794474       29       0.00008555      -0.00496913      -0.00081615 
Cu     10.48644829      11.81258869      10.76010926       29       0.00008532      -0.00065827       0.00083289 
Cu      8.90998419      13.40166544       9.55666735       29      -0.00267883       0.00151433       0.00129359 
Cu     10.24120901       8.39558816      11.75051457       29      -0.00111476      -0.00308047       0.00094283 
Cu      8.71944086      10.02860054      10.65262857       29      -0.00147414       0.00018439      -0.00087523 
Cu      7.17410750      11.60455874       9.46910466       29      -0.00293360       0.00056577      -0.00044872 
Cu     12.54618940       7.68956270      12.24149574       29      -0.00211828      -0.00824131      -0.00006469 
Cu      6.88469558      13.60259496       8.01058866       29      -0.00176187       0.00065120      -0.00018887 
Cu      7.02292667       5.40081312      10.98330986       29       0.00130291      -0.00136350      -0.00089783 
Cu      4.44744151       8.10705782       9.05803766       29      -0.00030557       0.00098741       0.00205265 
Cu      9.60077823       5.94242620      11.19735982       29      -0.00066355      -0.00271287       0.00046758 
Cu      5.43155632      10.31859438       8.13260163       29      -0.00245711       0.00105601       0.00010553 
Cu     12.74999087      11.30024645       9.76281238       29      -0.00026503      -0.00410137      -0.00263900 
Cu      6.78126583       7.26102626       9.33711704       29       0.00059679      -0.00022884       0.00065991 
Cu     11.20949808      12.92079168       8.58765725       29      -0.00162711       0.00167934       0.00404201 
Cu      4.97869888       5.57725806       9.35193826       29       0.00005516       0.00038107       0.00204523 
Cu     11.02195639       9.55787504       9.65742716       29      -0.00122062      -0.00091981      -0.00017030 
Cu      9.49028954      11.18897343       8.50589618       29      -0.00290607       0.00091328       0.00123594 
Cu      9.28667248       7.80965751       9.57173163       29      -0.00310530      -0.00017552       0.00067357 
Cu      5.17682956      12.29994823       6.67982389       29      -0.00046756       0.00224573      -0.00164791 
Cu      7.74406132       9.42807916       8.44496910       29      -0.00130159       0.00061441       0.00028962 
Cu     13.32233010       8.85520331      10.14102636       29      -0.00043665      -0.00632058      -0.00060621 
Cu      8.79119104       3.63710027      10.53731252       29       0.00371244      -0.00211201      -0.00331271 
Cu      9.19628667      13.19110428       7.03954441       29      -0.00069291       0.00141325       0.00144901 
Cu     11.60583424       7.02714118      10.04261575       29      -0.00238528      -0.00203868      -0.00143871 
Cu      3.77454550       9.03969358       6.77275699       29      -0.00053656       0.00010934      -0.00067319 
Cu      7.47469604      11.37049829       6.97213769       29      -0.00165977       0.00040394       0.00139282 
Cu      8.53876256       5.48838061       8.97117537       29       0.00317503      -0.00075441      -0.00196844 
Cu      6.76342180       3.76131427       8.96041952       29       0.00207767       0.00082463      -0.00120912 
Cu      6.04366182       8.16112067       7.08644787       29      -0.00061204       0.00089164       0.00179273 
Cu      4.21189371       6.49648514       7.04859501       29      -0.00026765       0.00091573       0.00142976 
Cu     11.83301809      10.75102519       7.51403731       29      -0.00471444       0.00382136      -0.00401504 
Cu     10.85143658       4.64036247       9.36235776       29       0.00337771      -0.00118396      -0.00401367 
Cu     10.05065621       9.02202145       7.44031662       29      -0.00109825       0.00179468      -0.00065063 
Cu      8.29941539       7.32362868       7.42652176       29       0.00056414       0.00020243      -0.00011951 
Cu      5.73708924      10.12799365       5.53530334       29      -0.00160825       0.00091564      -0.00105337 
Cu      6.54509543       5.68505195       7.39656561       29       0.00053427       0.00276004      -0.00113831 
Cu      4.77730002       4.01839363       7.35341001       29       0.00067487       0.00048110       0.00168651 
Cu     12.39368431       8.28473769       7.86506101       29      -0.00019253       0.00211591      -0.00107530 
Cu     10.54947633       6.56146835       7.80224975       29       0.00258918       0.00110603      -0.00134240 
Cu      9.83654898      11.01912824       5.93532626       29      -0.00315425       0.00102987      -0.00099775 
Cu      8.04771317       9.21966823       5.92489953       29       0.00075292       0.00360915       0.00075299 
Cu      9.12399933       3.30232637       8.01179356       29       0.00460147      -0.00131352      -0.00212001 
Cu     12.81544669       5.81149022       8.20575717       29       0.13686910      -0.03582746       0.00134053 
Cu      4.98240484       7.72892643       4.90853336       29       0.00394533       0.00032643      -0.00277935 
Cu      7.16401514      13.30529540       5.53182389       29       0.03205506      -0.01373671      -0.01448556 
Cu      8.88629601       5.17270523       6.43323198       29       0.00524859       0.00215175      -0.00017734 
Cu      7.31371045       6.87032519       5.29415173       29      -0.09259239       0.12098544      -0.03397564 
Cu      7.07171517       3.50882072       6.39265146       29       0.00255990       0.00367163      -0.00012895 
Cu      5.48611930       5.19860969       5.20148572       29      -0.00200076      -0.00335839       0.00215477 
Cu     11.26761890       7.47894453       3.61091185       29       0.00110234       0.00357225      -0.00097307 
Cu      7.83452599       4.74299474       4.22245968       29      -0.00135777      -0.00438608       0.00334349 
Cu     10.38124802       5.26870667       4.48659439       29       0.00235740       0.00385929      -0.00431684 
Cu      8.78469729       6.95480593       3.29868855       29       0.00076973      -0.00308756      -0.00125473 
Cu     12.10970848       6.62400649       5.87412692       29       0.00450320       0.00310384      -0.00360877 
Cu      9.55387627       9.33966628       3.96465171       29      -0.00165204       0.00100879      -0.00183366 
Cu      6.26113486       6.48406257       3.12370227       29       0.09454883      -0.11933913       0.03541718 
Cu      9.77723788       7.40907803       5.53043427       29       0.00252785       0.00284126      -0.00099349 
Cu      7.02684511       8.80988374       3.72116179       29       0.00197114       0.00015079      -0.00073729 
Cu     11.22017282       4.39630924       6.81516874       29      -0.12983872       0.03833796       0.00651513 
Cu      7.79478515      11.16844760       4.43457990       29      -0.02435184       0.01619057       0.01418167 
Cu     11.60051417       9.12998746       5.52253141       29      -0.00167203       0.00061205      -0.00148154 
