78
Lattice="16.7558825093 0.0 0.0 0.0 16.7558825093 0.0 0.0 0.0 16.7558825093" Properties=species:S:1:pos:R:3:Z:I:1:forces:R:3 energy=-234.655448386 pbc="F F F"
Cu      7.90661904      11.07337498      13.61363097       29       0.00098042       0.00115623       0.00045121 
Cu      7.27403711       8.63544734      13.14957471       29       0.00022078       0.00000731      -0.00124964 
Cu      5.58007844      10.55279320      12.70030838       29       0.00020774       0.00013087      -0.00195140 
Cu      9.64132055       9.51501565      12.60101209       29      -0.00013701       0.00221637      -0.00004067 
Cu      6.66064540       6.21562057      12.55566933       29       0.00091417       0.00282891       0.00017584 
Cu      4.93664145       8.09604178      12.16595279       29       0.00336772      -0.00037381      -0.00051468 
Cu      9.01819500       7.03301796      12.05326712       29      -0.00069297       0.00136414      -0.00100247 
Cu      6.92155450      12.61436306      11.83967214       29      -0.00172908       0.00448555      -0.00076654 
Cu      9.43253529      11.95846735      11.75171064       29       0.00120964       0.00005072       0.00019207 
Cu      3.31166072      10.00191464      11.66823369       29       0.00188574       0.00129388      -0.00111615 
Cu     11.33480880       7.94190766      11.45054286       29       0.00526947      -0.00289507       0.00369090 
Cu      9.80014912       4.71151516      11.44900960       29      -0.00171342      -0.00177590      -0.00235886 
Cu      7.62741495      10.29417472      11.32849479       29       0.00195175      -0.00287050      -0.00355367 
Cu     12.08995986       5.64167999      10.86807730       29      -0.00035646      -0.00137785      -0.00086759 
Cu      4.58343451      12.06914524      10.85381699       29      -0.00075413      -0.00336837      -0.00006151 
Cu     11.17709314      10.37175686      10.67516256       29       0.00001811       0.00237171      -0.00228837 
Cu      6.99879660       7.87856811      10.80580790       29       0.00006312       0.00099936       0.00585058 
Cu      5.19612580       6.19527399      10.44084967       29       0.00344641       0.00168048      -0.00076588 
Cu      5.34121153       9.75394169      10.35591157       29      -0.00765531       0.00072468       0.00579550 
Cu      9.30985264       8.76052923      10.27588888       29      -0.00312750       0.00297907      -0.00209038 
Cu      7.69290169       5.51334192      10.35516932       29       0.00157135      -0.00397214       0.00208857 
Cu     13.38291206       7.64646129      10.04387738       29      -0.00072226      -0.00348593      -0.00256285 
Cu      5.94349555      14.05639318       9.98168305       29       0.00054940       0.00262839      -0.00007076 
Cu      8.43575723      13.47790648       9.90812117       29      -0.00065973      -0.00126526      -0.00334193 
Cu     10.91893181      12.75363950       9.78091275       29       0.00039172       0.00098544       0.00052792 
Cu      3.52241685       8.10026638       9.97161949       29       0.00397501       0.00194336      -0.00069066 
Cu     10.06657813       6.46336869       9.74923464       29       0.00394231      -0.00450565      -0.00154894 
Cu      8.56710117       3.26071009       9.78919558       29      -0.00087100       0.00065043       0.00050583 
Cu      6.65200814      11.78030530       9.51515023       29      -0.00251900      -0.00004126       0.00022718 
Cu      9.10729030      11.14470580       9.43671406       29      -0.00358895      -0.00068344       0.00242483 
Cu     13.23344371      10.04964625       9.24258763       29       0.00044352       0.00007461      -0.00143152 
Cu     10.88524932       4.13307873       9.22873583       29      -0.00070888      -0.00066906       0.00269606 
Cu      3.30172374      10.55985588       9.18000449       29      -0.00148934       0.00078938      -0.00017889 
Cu      7.34450845       9.52295007       9.05945388       29       0.00849278       0.00240354      -0.00086983 
Cu     11.36690629       8.45813679       8.92453106       29       0.00358375      -0.00277853       0.00484255 
Cu      5.60952329       7.88377379       8.64914709       29      -0.00380079      -0.00037981       0.00113171 
Cu      8.03972065       7.26722542       8.60860128       29      -0.00247326      -0.00075593      -0.00279899 
Cu     12.21486902       6.12117875       8.38743302       29      -0.00106791      -0.00078341       0.00192088 
Cu      4.64008663      12.62239155       8.32239499       29       0.00021643      -0.00254490      -0.00154272 
Cu     11.18580884      10.89629045       8.12214341       29       0.00262752      -0.00021696       0.00081920 
Cu      6.30274161       5.51654013       8.21068340       29      -0.00063421       0.00042601      -0.00397976 
Cu      3.87413918       6.22391776       8.23242058       29       0.00216454       0.00280961      -0.00055105 
Cu      8.84021385       5.01571006       8.08938684       29       0.00121600       0.00036248      -0.00328622 
Cu      5.39051288      10.30124985       7.87580610       29      -0.00095991       0.00497030      -0.00381315 
Cu      9.34471652       9.25018981       7.77940266       29      -0.00393856       0.00277610       0.00153937 
Cu      7.01505096      13.49036262       7.73488293       29       0.00065420      -0.00145828      -0.00327755 
Cu      9.52950911      12.84998644       7.63293860       29      -0.00225538      -0.00096980      -0.00332923 
Cu     13.45415876       8.17726464       7.56255649       29       0.00141628      -0.00110527      -0.00094557 
Cu      7.17554326       3.26140460       7.65552241       29      -0.00392255       0.00118427      -0.00488112 
Cu      9.61714078       2.69948933       7.58372436       29      -0.00033984      -0.00245066      -0.00020615 
Cu      3.58606518       8.64728214       7.43842472       29       0.00067957      -0.00240344       0.00094233 
Cu      7.70901011      11.15570257       7.30152959       29       0.00163303      -0.00421051       0.00497166 
Cu     10.14414462       6.96268481       7.24408958       29      -0.00030498       0.00268659       0.00052555 
Cu     13.22985978      10.58577572       6.75793589       29      -0.00139893      -0.00136997       0.00044823 
Cu      7.05132894       8.77546557       6.76463397       29       0.00249886      -0.00313181      -0.00374607 
Cu     10.93690176       4.65430355       6.72714852       29       0.00188620      -0.00301142       0.00159886 
Cu      3.42239786      11.08885551       6.68582337       29       0.00023567      -0.00311495       0.00222449 
Cu     11.40445527       8.98064096       6.43318390       29      -0.00194160      -0.00063739      -0.00242550 
Cu     11.61093084      12.47369486       6.25592951       29       0.00008953       0.00176370       0.00504815 
Cu      7.82378294       6.46649642       6.29338448       29       0.00147610       0.00421082       0.00024992 
Cu      5.30665015       7.04690752       6.29556130       29      -0.00322565       0.00205278       0.00130038 
Cu      5.73701739      11.97739133       6.05836772       29      -0.00001742      -0.00245189       0.00042983 
Cu      9.75670280      10.85248606       5.97935285       29       0.00131664      -0.00286941       0.00151768 
Cu     12.22259423       6.69237461       5.89645274       29      -0.00002931       0.00031925       0.00291460 
Cu      6.15906368       4.71140726       5.84902033       29      -0.00006868       0.00169236       0.00130506 
Cu      8.62475302       4.13263338       5.75886598       29       0.00372996       0.00142916       0.00076887 
Cu      8.13611413      12.78492457       5.50681929       29      -0.00295120      -0.00181197      -0.00068084 
Cu      9.11667631       8.45408811       5.44263818       29      -0.00496090       0.00035373       0.00310827 
Cu      9.58248261      10.05288235       3.59422104       29       0.00060992       0.00348027      -0.00045418 
Cu      8.91895875       7.63803901       3.14225154       29      -0.00154208      -0.00148394      -0.00028162 
Cu     10.19687334      12.42164791       4.17591078       29      -0.00291406       0.00129154       0.00220428 
Cu     11.20725508       8.17099775       4.09488523       29      -0.00149626       0.00147705       0.00209848 
Cu      7.61686235       5.65009882       3.99428496       29       0.00094838       0.00128209      -0.00332334 
Cu      7.45535846      10.40398828       4.89451650       29       0.00074290      -0.00080989       0.00049195 
Cu      5.06669605       9.53589814       5.51379777       29      -0.00508667       0.00256748      -0.00000361 
Cu      9.94126535       6.11455229       4.88686837       29       0.00434831       0.00175338       0.00340092 
Cu      6.80406770       7.96622031       4.43383781       29       0.00168408      -0.00254308      -0.00191231 
Cu     11.85139571      10.57709361       4.60777836       29      -0.00060388      -0.00007588       0.00033246 
