78
Lattice="16.4200338918 0.0 0.0 0.0 16.4200338918 0.0 0.0 0.0 16.4200338918" Properties=species:S:1:pos:R:3:Z:I:1:forces:R:3 energy=-234.643436176 pbc="F F F"
Cu      7.94411435       8.22744068      13.27220882       29       0.00168751       0.00208769      -0.00092599 
Cu      9.89591797       9.89661496      12.95587088       29       0.00147955       0.00037302       0.00003754 
Cu      6.03482921       6.53474400      13.46394329       29       0.00060953      -0.00425328      -0.00121709 
Cu      8.31077347       5.72828208      12.62756244       29      -0.00018712       0.00039009      -0.00548764 
Cu     10.23619361       7.42595407      12.38489350       29      -0.00210535       0.00459344      -0.00074395 
Cu     10.61542804       4.99864673      11.65719651       29      -0.00199852      -0.00066279       0.00018840 
Cu      5.50732600       8.86627756      12.59252059       29      -0.00019096      -0.00334396       0.00048491 
Cu      7.44113606      10.57389238      12.32922986       29       0.00232775       0.00175347       0.00252636 
Cu     12.21069629       8.78570333      12.91028764       29       0.00174828      -0.00268954      -0.00301669 
Cu      6.11995903       4.86167603      11.54313455       29       0.00065040       0.00185981      -0.00057820 
Cu     12.58011427       6.41701423      12.26036860       29       0.00249882      -0.00400310       0.00014489 
Cu      8.42609802       4.08985299      10.63083969       29       0.00180192       0.00128407      -0.00197838 
Cu      5.03837688      11.16416311      11.60819485       29      -0.00312699       0.00324381       0.00258614 
Cu      6.84392638       7.23290918      11.28158632       29       0.00500840       0.00235427       0.00264208 
Cu      8.76355860       8.91866664      11.02706822       29      -0.00345007      -0.00002301      -0.00354347 
Cu      9.39333797      11.34363845      10.86222550       29       0.00066712       0.00107700       0.00225753 
Cu      3.90441562       9.14634011      10.55063383       29       0.00035942      -0.00161628      -0.00186238 
Cu      4.40648975       6.79300827      11.49965650       29      -0.00060060      -0.00093756       0.00446645 
Cu      9.08672919       6.47039437      10.38976847       29       0.00208113      -0.00323110       0.00053951 
Cu     13.45218104       8.23058564      10.78820011       29       0.00179487       0.00020379      -0.00007567 
Cu     11.44685063       7.00591265      10.15692355       29      -0.00111676       0.00402862      -0.00083230 
Cu     12.73051111       4.94017291      10.20818392       29       0.00282710      -0.00023399       0.00144903 
Cu      6.34804924       9.54205719      10.35842515       29      -0.00029001      -0.00049444      -0.00422619 
Cu      6.95496239      11.96801272      10.17286199       29       0.00011428       0.00057405       0.00197425 
Cu      9.16015479       7.50182487       3.14590117       29       0.00030939      -0.00268573       0.00344907 
Cu     10.60505038       9.88479583       2.95609060       29      -0.00029810      -0.00051818       0.00216290 
Cu      7.51742665       9.41976193       3.16767041       29       0.00014915       0.00126346       0.00132123 
Cu      7.38144254       5.77966343       3.44365997       29      -0.00126612      -0.00117453       0.00092401 
Cu      5.65949411       7.73545562       3.37623205       29      -0.00280919      -0.00211821      -0.00033562 
Cu      9.81287882       5.23785908       4.10519739       29      -0.00075575       0.00307059       0.00289915 
Cu      5.26886919      10.17328306       4.01019365       29       0.00174324       0.00071349      -0.00206835 
Cu     11.39278411       7.79231836       4.18557497       29      -0.00083434       0.00255729       0.00826480 
Cu      8.47878160      11.51993821       4.17480826       29      -0.00179172      -0.00112200       0.00064484 
Cu      9.33596026       9.29174778       4.83333750       29       0.00069574      -0.00032628       0.00057225 
Cu      7.43241443       7.63783607       5.00586415       29       0.00207558      -0.00209760       0.00056078 
Cu     12.58536429       9.78774252       4.73918990       29       0.00596002       0.00148428      -0.00093919 
Cu      5.50759438       5.92539069       5.16648413       29      -0.00193482      -0.00177697       0.00093637 
Cu      6.27611833      12.28742820       5.10025887       29      -0.00166876      -0.00466589       0.00114582 
Cu     12.00671319       5.78932034       5.46961768       29      -0.00190637       0.00113796       0.00040921 
Cu     10.80175175      11.39006375       5.01605193       29       0.00084560      -0.00203729       0.00384980 
Cu      7.86558446       5.19917550       5.84273721       29       0.00176815      -0.00277242       0.00537293 
Cu      9.73642812       6.96680980       5.73117528       29       0.00529961      -0.00111764      -0.00504980 
Cu      7.05360315      10.04684113       5.63209478       29      -0.00449808       0.00254235      -0.00260927 
Cu      5.05912724       8.36683860       5.77688434       29       0.00072138      -0.00053963       0.00110567 
Cu     13.05884542       7.90186627       6.35710992       29       0.00220616       0.00089136      -0.00282932 
Cu     10.20533643       4.56034610       6.59973809       29      -0.00289805       0.00035082      -0.00017984 
Cu      8.43982949      13.13667874       6.11655934       29      -0.00203296       0.00247254      -0.00150403 
Cu      4.71099980      10.80758249       6.43296480       29       0.00204247       0.00158806      -0.00094768 
Cu     10.92876620       9.10089457       6.60650597       29       0.00391968      -0.00068719      -0.00441280 
Cu      9.13936184      10.93031772       6.74513160       29      -0.00469139      -0.00264099       0.00127727 
Cu      8.46049724       8.59884722       7.01091628       29       0.00067079      -0.00262578       0.00044705 
Cu      6.56033931       6.91313773       7.18398388       29       0.00434030       0.00142038      -0.00213856 
Cu      5.84746406       4.54899497       7.34998340       29      -0.00057806       0.00152584       0.00029119 
Cu      4.13020584       6.48115616       7.30818176       29      -0.00311014       0.00030633       0.00237232 
Cu     12.48884112      10.93379177       6.93369925       29      -0.00062141       0.00052040       0.00270013 
Cu     12.52071339       4.67765650       7.69687131       29       0.00131892       0.00034867       0.00055547 
Cu     10.78382276      12.78195338       7.05679003       29       0.00156231      -0.00160383      -0.00136241 
Cu     11.27885728       6.77102501       7.67077472       29       0.00027033       0.00052585      -0.00084743 
Cu      6.79618947      11.79071195       7.53824910       29      -0.00468682      -0.00047338       0.00003668 
Cu      8.89156778       6.24075750       7.90462561       29      -0.00423297       0.00244230       0.00007232 
Cu      8.23069677       3.86482438       8.06727829       29       0.00361916       0.00410370       0.00160273 
Cu      6.17149906       9.35797854       7.81757393       29      -0.00623869       0.00129598       0.00134246 
Cu      3.73543742       8.95525627       7.95251201       29       0.00150946       0.00090451      -0.00145838 
Cu     13.53857283       6.75701380       8.68977476       29      -0.00084249      -0.00200230       0.00005932 
Cu     12.45472428       8.98674202       8.60639221       29       0.00009422       0.00131550      -0.00122860 
Cu     10.72464635      10.87378202       8.71043660       29       0.00158035      -0.00005436      -0.00073343 
Cu      8.88586966      12.67562026       8.65315152       29       0.00050492       0.00007072       0.00085084 
Cu     10.45568422       4.75652042       9.14205907       29      -0.00516122      -0.00171185      -0.00050490 
Cu     10.01073398       8.48482548       8.88365561       29      -0.00422424      -0.00191053      -0.00102187 
Cu      8.26028597      10.28960864       8.93388919       29       0.00140923      -0.00298694       0.00142223 
Cu      7.64420889       7.92675131       9.12759171       29       0.00498886       0.00361385      -0.00153511 
Cu      4.82934766      11.03332306       9.04377549       29      -0.00035247      -0.00050114      -0.00239900 
Cu      6.94077175       5.60902995       9.33028615       29      -0.00045367       0.00191016      -0.00233166 
Cu      5.27115212       7.50485170       9.28435142       29       0.00189056       0.00448455      -0.00541341 
Cu      6.25226953       3.28335515       9.54425285       29      -0.00261322       0.00135717       0.00005243 
Cu      4.51611332       5.14277062       9.50372249       29      -0.00171726      -0.00198712      -0.00261444 
Cu      2.88146106       7.08582392       9.46039843       29      -0.00461552      -0.00179549      -0.00124132 
Cu     11.20537462       9.48418587      10.80717606       29       0.00274859      -0.00261894       0.00419601 
