78
Lattice="16.8128933085 0.0 0.0 0.0 16.8128933085 0.0 0.0 0.0 16.8128933085" Properties=species:S:1:pos:R:3:Z:I:1:forces:R:3 energy=-234.643771718 pbc="F F F"
Cu      8.38736436       5.59883796      13.29321760       29      -0.00016171       0.00055759       0.00036595 
Cu      8.66206226       8.08241585      13.80841275       29      -0.00017368       0.00080002       0.00010313 
Cu      6.61653555       7.38845762      12.58343329       29       0.00089408      -0.00038477       0.00045000 
Cu     10.12993444       9.94053244      12.94894092       29      -0.00165327      -0.00027482      -0.00036543 
Cu      7.97664865       9.42319595      11.78142189       29       0.00095445      -0.00130183      -0.00001615 
Cu     10.90645970       7.46761869      12.98280065       29      -0.00012534      -0.00005878       0.00170330 
Cu      4.85213246       6.79953466      10.82833926       29       0.00025922      -0.00024741      -0.00096616 
Cu      8.71585837       3.57036670      11.80749108       29       0.00179876      -0.00066800       0.00002259 
Cu      6.93785612      11.28185150      10.35631639       29       0.00018871      -0.00001440       0.00111456 
Cu     12.44764050       9.24106652      12.42452609       29      -0.00040638      -0.00068344       0.00001691 
Cu     10.64526457       5.10939820      12.26656092       29      -0.00017131       0.00150993      -0.00076053 
Cu      8.97559141       7.11521440      11.52958236       29      -0.00018377       0.00090480      -0.00111620 
Cu      7.06340056       5.37486435      11.11864446       29       0.00086259       0.00062519      -0.00124627 
Cu     13.12385935       6.69094239      11.98814635       29      -0.00088738      -0.00118442       0.00060549 
Cu     10.49441240       9.02338946      10.72744474       29       0.00088940       0.00076526      -0.00087462 
Cu      7.04056269       7.70457210      10.15851542       29       0.00158728       0.00008889       0.00093732 
Cu      9.46012734      11.31396663      10.88958103       29       0.00114297       0.00087178      -0.00085050 
Cu      7.54644690       3.39963490       9.56896160       29       0.00040974       0.00117196       0.00010146 
Cu      5.47228773       9.30853004      11.19956365       29      -0.00014992      -0.00049012      -0.00022556 
Cu     13.30132736       6.29315117       9.22392855       29       0.00031200      -0.00040426      -0.00075522 
Cu      8.31430489      13.45369967      10.22852165       29      -0.00003153      -0.00091159      -0.00031103 
Cu     11.99377129      10.97058448      10.63586374       29      -0.00052148       0.00081085       0.00097192 
Cu      4.46793866      11.19791658       9.73455277       29      -0.00051736      -0.00074348      -0.00261735 
Cu     13.18109741       8.55138778      10.25586534       29       0.00002039      -0.00093250       0.00033963 
Cu     10.03852515       2.79928760       9.72747549       29      -0.00019933       0.00113758      -0.00197361 
Cu     10.66315069      12.87216944       9.37892493       29      -0.00057069      -0.00065662      -0.00012824 
Cu      9.42607733       5.10959570      10.06683575       29      -0.00011216      -0.00016674      -0.00048754 
Cu      3.20219707       6.20501690       9.00965297       29       0.00085153       0.00141848       0.00125892 
Cu     11.91273286       4.41307655      10.19703137       29      -0.00057551       0.00052976       0.00016761 
Cu     13.12394443      10.26134900       8.49276171       29       0.00169448       0.00000540       0.00137251 
Cu      3.76819396       8.69224515       9.38998679       29       0.00102940      -0.00032428       0.00021058 
Cu     11.64392429       3.48873524       7.87131176       29      -0.00040042       0.00011406      -0.00082827 
Cu     11.27811086       6.77069494      10.54496559       29      -0.00536775      -0.00113423       0.00824571 
Cu      8.45780649       9.61426183       9.33771156       29       0.00269701       0.00021709      -0.00042165 
Cu      5.31838085       4.76410247       9.30698875       29      -0.00002572      -0.00104897       0.00125904 
Cu      8.51768665      11.85182946       8.40806769       29       0.00141028      -0.00045386      -0.00060156 
Cu     10.62246920      10.51295076       8.61572385       29      -0.00132320      -0.00000676      -0.00096891 
Cu     13.61069624       7.94661087       7.31719272       29      -0.00020592      -0.00050074       0.00060792 
Cu      5.83950233      13.37063193       9.76377298       29       0.00103917       0.00056444      -0.00036376 
Cu      8.39826149       8.38184826       3.00448056       29       0.00069283       0.00179769      -0.00021479 
Cu      6.07563104       8.84617153       3.94570571       29      -0.00050972       0.00008595       0.00016136 
Cu      7.04558251       6.42265110       3.89804802       29      -0.00179289      -0.00062482       0.00150829 
Cu      8.03879062      10.47172005       4.44247233       29       0.00115152       0.00003726      -0.00039194 
Cu      9.59609987       6.57384755       4.37238854       29       0.00043377       0.00153804       0.00102766 
Cu     10.19173675       9.07054246       4.66062490       29      -0.00020675       0.00073164       0.00068672 
Cu      3.80079480       9.28294766       5.00389232       29      -0.00209748      -0.00032678       0.00047580 
Cu      4.70537148       6.88448252       4.91264346       29       0.00028233      -0.00060660       0.00009570 
Cu      5.70186341      10.93076768       5.44364461       29      -0.00019043       0.00026425       0.00090731 
Cu      7.96657979       8.16940132       5.39187974       29       0.00153355      -0.00037636       0.00040119 
Cu      5.70170441       4.52065535       4.90985785       29       0.00003458       0.00127881      -0.00047071 
Cu      7.69585901      12.51405261       5.98716498       29      -0.00046245      -0.00070688       0.00046125 
Cu      8.22382645       4.60835546       5.33954210       29       0.00056167      -0.00002674      -0.00063023 
Cu      9.83012694      11.17016458       6.19750946       29      -0.00055590       0.00014379      -0.00080968 
Cu     11.40463121       7.26078680       6.10935023       29       0.00089443      -0.00069813      -0.00015637 
Cu     10.77070392       4.79432132       5.86255595       29      -0.00006442      -0.00078309       0.00074677 
Cu     11.93318666       9.72795445       6.41137061       29       0.00162946      -0.00055320      -0.00026281 
Cu      5.67956765       8.62572611       6.39778544       29      -0.00071616      -0.00063656       0.00018827 
Cu      6.63021653       6.25089158       6.34754893       29       0.00025139       0.00106863      -0.00118407 
Cu      7.59816643      10.20742926       6.87104784       29      -0.00030753      -0.00028087      -0.00081689 
Cu      9.12004815       6.39473884       6.79515719       29       0.00076083       0.00178343      -0.00061263 
Cu      9.68807251       8.84603163       7.07009317       29      -0.00020860       0.00076387       0.00001260 
Cu     13.00572510       5.48019672       6.88238994       29      -0.00027692       0.00004717       0.00084501 
Cu      3.43630998       7.74466125       6.99823374       29      -0.00002906       0.00008865      -0.00007444 
Cu      4.06836102      10.25098920       7.35882712       29      -0.00082417      -0.00016211       0.00043344 
Cu      4.40971164       5.32091278       6.95131772       29      -0.00174010      -0.00033883       0.00118150 
Cu      6.01694555      11.88556045       7.81846697       29       0.00042079      -0.00024135       0.00027198 
Cu      6.59161204       3.91160357       7.22034095       29      -0.00006537      -0.00068069      -0.00028373 
Cu      7.53438876       7.97705284       7.77593639       29      -0.00100576       0.00005694       0.00130839 
Cu      7.42773395      14.01360571       7.96566515       29      -0.00198555      -0.00072158       0.00014717 
Cu      9.15807960       4.04435719       7.69971667       29      -0.00005946      -0.00065954      -0.00009261 
Cu     11.88219164      12.13178139       7.30378642       29       0.00071098      -0.00006402      -0.00028075 
Cu     11.01317959       5.78712615       8.23328506       29       0.00002652       0.00087024       0.00065597 
Cu     11.56703509       8.21766869       8.49723989       29      -0.00168540      -0.00181587      -0.00110874 
Cu      5.38043967       7.09246495       8.39495365       29      -0.00045479      -0.00002269       0.00014129 
Cu      6.00764174       9.57178092       8.76101848       29      -0.00047816       0.00004567       0.00078739 
Cu      7.50905552       5.70490229       8.65407491       29      -0.00083177       0.00100258       0.00036917 
Cu      9.76379907      13.50885140       7.13331601       29      -0.00211115      -0.00059649      -0.00091946 
Cu      9.37341751       7.36992334       9.13472817       29       0.00499769      -0.00018246      -0.00848036 
