78
Lattice="17.0743174916 0.0 0.0 0.0 17.0743174916 0.0 0.0 0.0 17.0743174916" Properties=species:S:1:pos:R:3:Z:I:1:forces:R:3 energy=-234.606950561 pbc="F F F"
Cu     10.63326908       8.55575266      13.69621756       29       0.00146771      -0.00041468       0.00062317 
Cu      8.14241003       4.86742961      13.50931980       29       0.00280845      -0.00425154       0.00121742 
Cu      8.20729097       9.35519279      13.38288606       29       0.00030757       0.00219880       0.00332275 
Cu      5.73891370       5.61168405      13.12783277       29       0.00370479      -0.00117503      -0.00104953 
Cu      5.77699642      10.05988024      12.91880220       29      -0.00191272       0.00020309      -0.00159903 
Cu     10.15674018      10.99735860      13.01921832       29       0.00004123       0.00325323      -0.00160295 
Cu     10.52624688       5.07423818      12.69206893       29       0.00072388      -0.00329862      -0.00271805 
Cu      8.96097932       7.01864048      12.59242094       29       0.00229109      -0.00036071       0.00223402 
Cu      7.69077020      11.76025705      12.62459227       29       0.00018372       0.00150416      -0.00173480 
Cu      6.52744092       3.38123010      12.30235091       29      -0.00282810      -0.00042927      -0.00029394 
Cu      6.55149724       7.76554458      12.20928114       29       0.00234435      -0.00168936       0.00235986 
Cu      9.63344347      13.36611178      12.22367337       29      -0.00044527       0.00174255      -0.00399930 
Cu      4.21984906       7.03359566      11.69371188       29      -0.00079559       0.00055600      -0.00072526 
Cu     12.13968641       9.70150829      11.96697085       29      -0.00000191       0.00142546       0.00143972 
Cu     11.43879183       7.20463933      11.69688064       29       0.00130110       0.00067924       0.00448973 
Cu      8.90527039       3.55422067      11.47355841       29       0.00034973      -0.00256786      -0.00176049 
Cu      9.78983126       9.09511465      11.47051174       29      -0.00087302       0.00204339      -0.00229790 
Cu      7.34910678       5.49929488      11.26718975       29       0.00108728       0.00618927      -0.00175874 
Cu      7.37095775       9.84363310      11.08059028       29       0.00302559       0.00289063      -0.00515210 
Cu     11.63252366      12.13903416      11.22261640       29      -0.00199615       0.00203302      -0.00179081 
Cu      4.99289162       4.76847464      10.85466013       29      -0.00267935      -0.00231816       0.00025617 
Cu      5.72046153      11.68984705      10.94312523       29      -0.00068178      -0.00034011      -0.00028620 
Cu      4.97156120       9.21010844      10.66021546       29       0.00073579       0.00069595       0.00070426 
Cu      9.28556100      11.47383798      10.73640399       29      -0.00029937      -0.00332809       0.00104502 
Cu     11.27310427       3.81815769      10.61748877       29       0.00194510       0.00128194      -0.00209467 
Cu      7.67340008      13.36403834      10.58947948       29      -0.00045933       0.00203531       0.00125968 
Cu      9.72852037       5.71421766      10.45277597       29       0.00008639      -0.00351520       0.00205153 
Cu      8.15659706       7.59928567      10.29657492       29      -0.00270446      -0.00351032      -0.00222444 
Cu      6.94717962       3.46968138       9.83109504       29      -0.00301887      -0.00095537      -0.00252360 
Cu      5.83468766       6.92139550       9.83853791       29       0.00300271       0.00161741       0.00120329 
Cu     13.54717260      10.83410057      10.16224699       29       0.00053602       0.00006717      -0.00102277 
Cu     12.92846816       8.37405507       9.89520121       29       0.00175171       0.00114145       0.00341089 
Cu     11.23801059      10.21828843       9.70422845       29      -0.00040334      -0.00082837       0.00444241 
Cu      3.52714490       6.23110431       9.39118615       29       0.00325796       0.00127486      -0.00130499 
Cu     10.09867410      13.58986225       9.71891848       29       0.00164225       0.00031989      -0.00229302 
Cu     12.16697521       5.91723769       9.61019890       29      -0.00146302      -0.00216522      -0.00115559 
Cu     10.57409534       7.81238525       9.43470863       29      -0.00367315       0.00477390      -0.00355035 
Cu      8.95741924       9.61250534       9.24853470       29       0.00043906      -0.00061092       0.00654419 
Cu      7.35536463      11.41846210       9.08690530       29       0.00149728      -0.00378692       0.00332354 
Cu      9.34632547       3.65361910       8.97775693       29      -0.00069416      -0.00191200      -0.00312329 
Cu      5.75408557      13.24157602       8.91250866       29      -0.00361325       0.00178746      -0.00038306 
Cu      7.77148505       5.60159159       8.81031829       29      -0.00291744       0.00062488       0.00201637 
Cu      6.63509628       9.02832410       8.79746697       29       0.00417544       0.00418778       0.00400087 
Cu      4.96538159      10.83919336       8.61918266       29      -0.00238937       0.00257145       0.00208798 
Cu      4.28486880       8.36868441       8.34578649       29      -0.00227405      -0.00064969      -0.00087669 
Cu      5.40657393       4.87458571       8.35901112       29      -0.00038956       0.00129814      -0.00072551 
Cu     12.08779293      12.30685700       8.66884392       29      -0.00012140      -0.00156516      -0.00001541 
Cu      9.73486305      11.63599338       8.23001350       29      -0.00100760       0.00405123      -0.00194670 
Cu     11.71237171       3.94555682       8.13851807       29       0.00101625      -0.00208624      -0.00115070 
Cu     10.17432144       5.84328861       7.97577965       29       0.00084464       0.00123382       0.00296016 
Cu      8.12811246      13.52417546       8.03256499       29      -0.00046894       0.00085748       0.00027172 
Cu      8.61800820       7.73466902       7.82275834       29      -0.00162414      -0.00038302      -0.00326826 
Cu     12.86497564       9.96899374       7.86969668       29       0.00088806      -0.00004867       0.00093896 
Cu     12.17487247       7.44638263       7.57085550       29      -0.00330745       0.00271584       0.00192501 
Cu      6.26231043       7.05525128       7.36190971       29       0.00037739      -0.00252892      -0.00329003 
Cu      7.38903895       3.62964667       7.32534811       29       0.00200812      -0.00000862       0.00105580 
Cu     10.53803166       9.34594668       7.38348147       29       0.00042808      -0.00250298       0.00338660 
Cu      3.95248549       6.35341376       6.91187809       29      -0.00159355      -0.00138731      -0.00094465 
Cu      8.09891573      10.10913715       7.04439356       29      -0.00129424      -0.00063527      -0.00090419 
Cu     10.52525455      13.69308739       7.19983361       29       0.00138501      -0.00304523      -0.00056385 
Cu      6.45666489      11.94699234       6.82104209       29      -0.00112292       0.00052876       0.00053177 
Cu      5.69721879       9.47590368       6.51292479       29       0.00087479       0.00126284      -0.00182091 
Cu      9.78144646       3.85016122       6.47657164       29      -0.00102150      -0.00158195       0.00141196 
Cu      8.22896080       5.80366326       6.35063630       29      -0.00194751       0.00312020       0.00109035 
Cu     11.31905281      11.43379772       6.35167473       29      -0.00115058      -0.00017320       0.00039209 
Cu     11.69356133       5.42871145       6.08989882       29       0.00013674       0.00370282      -0.00263175 
Cu      9.17567473       7.79417111       3.65162441       29       0.00069081      -0.00296874      -0.00272931 
Cu      6.79844368       8.55900976       3.37809993       29       0.00001200      -0.00090196      -0.00024716 
Cu      7.22940701      10.55339028       4.78465523       29      -0.00009132      -0.00148302       0.00173270 
Cu      7.30168214       6.17963594       4.06744747       29       0.00199660      -0.00040691      -0.00056140 
Cu      5.34360140       7.43316542       5.08435769       29      -0.00084828       0.00074682      -0.00202977 
Cu      9.63508702       9.83103802       5.10368743       29       0.00062551       0.00086292      -0.00245934 
Cu      5.87740885       5.07323179       5.86627706       29      -0.00216704      -0.00060104      -0.00165303 
Cu      8.88249881      12.18024555       5.94551108       29       0.00280472      -0.00247938       0.00234623 
Cu      9.74628653       5.44016224       4.44488173       29       0.00092139      -0.00019783      -0.00273348 
Cu     10.18814749       7.41376920       5.89835585       29       0.00248119      -0.00118014       0.00348990 
Cu      7.71076619       8.15910080       5.59603862       29      -0.00060593      -0.00162232       0.00693371 
Cu      7.84461369       3.85065249       4.85825382       29      -0.00131185      -0.00158380       0.00049723 
