78
Lattice="17.0056441193 0.0 0.0 0.0 17.0056441193 0.0 0.0 0.0 17.0056441193" Properties=species:S:1:pos:R:3:Z:I:1:forces:R:3 energy=-234.8131986 pbc="F F F"
Cu      9.20810577      10.68117920      12.85775222       29      -0.00348298      -0.00319298      -0.00299343 
Cu      7.72518083       8.64747448      13.47423093       29       0.00110942       0.00317031       0.00134829 
Cu      8.83017234       6.48185841      14.26401845       29       0.00026179       0.00151946       0.00015057 
Cu      5.76926904       8.52040580      11.78510919       29       0.00102918      -0.00156044       0.00037379 
Cu     10.30589340       8.49163418      13.72488251       29      -0.00146270      -0.00051816       0.00103516 
Cu     11.04459830       6.10374679      13.03249449       29       0.00074137       0.00164554      -0.00054599 
Cu     10.76908039      11.68540658      11.04398002       29       0.00033964      -0.00353902       0.00023165 
Cu      6.86491181       6.33673147      12.63535963       29      -0.00013453      -0.00030384      -0.00136203 
Cu     11.14520009       4.41652378      11.06840909       29       0.00208783      -0.00094507       0.00397840 
Cu     10.56131156       9.20976286      11.36608831       29       0.00015017      -0.00309945       0.00276082 
Cu      3.83507870       9.66043706      10.62564335       29      -0.00057264      -0.00114550      -0.00127680 
Cu      8.18461754      11.86457693      10.78680942       29      -0.00191028      -0.00224549      -0.00092806 
Cu     12.53103163       8.13651712      12.41914688       29      -0.00141247       0.00155497       0.00256994 
Cu      9.10050302       7.21655723      11.96507541       29      -0.00033524      -0.00280805      -0.00257286 
Cu      8.91968610       4.77149686      12.37507079       29       0.00072737      -0.00126274       0.00089868 
Cu      8.03726493       9.35893297      11.12552957       29      -0.00081705       0.00260490       0.00243049 
Cu     11.75404842      10.48292508      13.05807496       29      -0.00144429      -0.00084262       0.00475435 
Cu      7.19140363       7.08775840      10.30045396       29      -0.00227782      -0.00102186       0.00437572 
Cu      6.63954366      10.80307617      12.52504858       29       0.00163113       0.00112346       0.00086652 
Cu     13.20475821       5.78540789      11.69596475       29      -0.00033792      -0.00146308      -0.00121447 
Cu     10.04929714      10.21021383       2.74162567       29      -0.00143918       0.00218033       0.00011150 
Cu      8.60808677       8.21325894       3.29147489       29      -0.00244284       0.00111889      -0.00019825 
Cu     11.13551339       8.08991071       3.51785384       29      -0.00203793       0.00265827      -0.00010197 
Cu      7.18684228       6.21910921       3.93796442       29      -0.00199643      -0.00057396      -0.00154004 
Cu      7.88437782      10.57183920       3.95937956       29      -0.00049910       0.00245649      -0.00065492 
Cu      9.71784555       6.07918378       4.09394596       29      -0.00179026      -0.00063877       0.00135999 
Cu     11.97420313      10.35137104       4.33933113       29      -0.00024588       0.00138909      -0.00019074 
Cu      6.42017871       8.55796232       4.53249281       29       0.00185331       0.00281775      -0.00182306 
Cu      9.97169751      11.88885922       4.62524758       29      -0.00017147      -0.00075837      -0.00281392 
Cu      9.82411407       9.43691954       5.10406749       29      -0.00171585       0.00115784      -0.00414557 
Cu      5.02772356       6.55318086       5.20359556       29       0.00084571      -0.00355578       0.00297802 
Cu      5.71367449      10.90921526       5.25590498       29      -0.00089493       0.00166569      -0.00114492 
Cu      8.41435724       7.42843168       5.68181186       29       0.00011276       0.00460434       0.00253288 
Cu     11.02853490       7.27653846       5.85794355       29       0.00059298      -0.00145532       0.00422031 
Cu      7.79544252      12.26033475       5.87610665       29      -0.00148015       0.00377190       0.00141066 
Cu      4.27718147       8.88880172       5.86736713       29       0.00034647      -0.00044517      -0.00188412 
Cu     11.91867483      12.00967502       6.24563146       29      -0.00213900      -0.00036187       0.00116724 
Cu      6.95616070       5.37238684       6.26938662       29       0.00018755       0.00097718      -0.00053006 
Cu      7.67700429       9.79132879       6.32467407       29      -0.00065583      -0.00068380       0.00322628 
Cu      9.50228326       5.20695960       6.45258385       29       0.00016165      -0.00095766      -0.00074899 
Cu     11.87164769       9.54494266       6.68244807       29      -0.00007134      -0.00280758      -0.00363034 
Cu     12.02789873       5.12581568       6.74109416       29       0.00043275      -0.00032430      -0.00041861 
Cu      9.88844903      13.49922651       6.57922127       29       0.00218907      -0.00339018      -0.00269841 
Cu      3.59896936      11.21261099       6.58760866       29      -0.00219020       0.00287929       0.00119155 
Cu      6.25574475       7.76131662       6.94310978       29       0.00492284      -0.00039852      -0.00390939 
Cu      9.77298468      11.08697928       7.00896014       29       0.00288447       0.00297060      -0.00004349 
Cu      5.64304702      12.56406942       7.20157052       29       0.00321703      -0.00290441      -0.00038493 
Cu      9.65009283       8.66311539       7.41738673       29      -0.00323593      -0.00365959      -0.00449617 
Cu     12.95719784       7.37463975       7.57489662       29       0.00073156      -0.00109253      -0.00080599 
Cu      3.97662306       6.96385649       7.47805580       29       0.00107283      -0.00364762      -0.00123946 
Cu      5.55932290      10.10255239       7.63868820       29       0.00074219       0.00381183       0.00125492 
Cu      7.73820851      13.84622135       7.85278480       29       0.00203805      -0.00250509      -0.00054541 
Cu      8.18300490       6.63840522       8.01680640       29      -0.00085355       0.00235626      -0.00211944 
Cu     10.70190431       6.53159817       8.22675048       29       0.00019287       0.00254508      -0.00236299 
Cu     13.72586678       9.68714235       8.39811670       29       0.00218087      -0.00094289       0.00079014 
Cu      7.98154103       4.19765578       8.32731731       29       0.00214438      -0.00216158       0.00041018 
Cu      3.27977734       9.30225180       8.18896381       29       0.00122319      -0.00003459      -0.00179145 
Cu      7.62359206      11.43808642       8.27752581       29      -0.00275774       0.00076392      -0.00035327 
Cu     10.55129337       4.08051550       8.56096160       29      -0.00060966      -0.00000095       0.00087754 
Cu     11.76414234      11.28499926       8.65854603       29      -0.00203039       0.00156361       0.00290656 
Cu      5.91012759       5.75557787       8.56871289       29       0.00231605      -0.00104598       0.00087800 
Cu      7.49034308       9.00576390       8.68353281       29       0.00140975      -0.00012611       0.00055977 
Cu     11.54936709       8.80691453       9.05320905       29      -0.00222882       0.00121290       0.00007484 
Cu      9.71373930      12.78636073       8.95977573       29       0.00177330      -0.00028155      -0.00177287 
Cu     12.67456914       5.40926942       9.22361494       29       0.00235945       0.00158963       0.00181873 
Cu      4.12936341      11.58348871       9.01710543       29       0.00087209      -0.00045441      -0.00189660 
Cu      5.22409251       8.16647139       9.25872611       29      -0.00029367      -0.00022642       0.00945356 
Cu      9.56094879      10.34182511       9.36067818       29       0.00056887      -0.00016295      -0.00002878 
Cu      9.37880896       7.93821131       9.68957149       29      -0.00014188       0.00174991       0.00066312 
Cu      6.19508081      12.92482629       9.64387612       29       0.00163023      -0.00064222      -0.00076894 
Cu     13.53726120       7.72382715      10.06363071       29      -0.00010489       0.00106252       0.00258426 
Cu      4.95459032       6.27620264      10.88163222       29       0.00094610       0.00213036      -0.00069893 
Cu      9.20140742       5.55714620      10.04127471       29       0.00266471      -0.00063559       0.00034989 
Cu      6.08732920      10.48531258      10.10256552       29       0.00088348      -0.00002518      -0.00330850 
Cu      6.96384327       4.65312172      10.66958722       29      -0.00287692       0.00038232      -0.00005722 
Cu      9.02696245       3.15942277      10.40158812       29       0.00012623       0.00099431      -0.00042648 
Cu     11.28333689       6.86978501      10.68020117       29      -0.00283651      -0.00008676       0.00062333 
Cu     12.79744324      10.11163506      10.75172547       29       0.00022759      -0.00149294      -0.00678980 
