78
Lattice="17.02364632 0.0 0.0 0.0 17.02364632 0.0 0.0 0.0 17.02364632" Properties=species:S:1:pos:R:3:Z:I:1:forces:R:3 energy=-234.735248341 pbc="F F F"
Cu      9.02195934       9.27879609      13.72553677       29       0.00183808      -0.00227082      -0.00007740 
Cu      9.33752860      11.75855279      13.45499965       29      -0.00035607      -0.00179947       0.00086068 
Cu     10.93786685       7.74223167      13.13764503       29       0.00167709       0.00094996      -0.00025520 
Cu      6.82222540       8.22489051      13.01715318       29       0.00020778       0.00009562      -0.00086153 
Cu     11.25648248      10.23577151      12.88862286       29      -0.00130186      -0.00040061       0.00046436 
Cu      7.14106806      10.72424382      12.76509323       29       0.00091187      -0.00185503      -0.00098510 
Cu      8.62742203       5.27469615      11.96941308       29       0.00003817      -0.00359137       0.00146882 
Cu      4.97640709       9.64077749      12.00487296       29      -0.00028038      -0.00175013      -0.00135635 
Cu      8.91176843       7.75394324      11.75390984       29      -0.00163095       0.00461212       0.00265930 
Cu      9.22997570      10.26910093      11.46586672       29      -0.00005184       0.00037509       0.00185919 
Cu     10.88392069       6.15427495      11.16824917       29      -0.00015542      -0.00197692      -0.00209258 
Cu     10.73594844      12.26599810      11.41711254       29      -0.00127463      -0.00014548       0.00293925 
Cu      6.67313256       6.64050271      11.05255506       29       0.00066859      -0.00095166      -0.00086966 
Cu      8.20107506      12.57397144      11.35917705       29       0.00208994      -0.00096469       0.00147006 
Cu     11.18410053       8.72831002      10.90336522       29       0.00418244       0.00025528      -0.00157235 
Cu     12.65910388      10.72929004      10.82927116       29       0.00326109       0.00122130       0.00107800 
Cu      7.04097690       9.20479557      10.75933734       29       0.00034142       0.00314539       0.00426939 
Cu     13.05917844       7.17331361      10.31019271       29      -0.00197634       0.00275877      -0.00128896 
Cu      5.98151648      11.52635182      10.64452810       29       0.00341076      -0.00101011      -0.00057857 
Cu      9.85511638       4.06975012      10.02916192       29      -0.00042073       0.00064341      -0.00056030 
Cu      7.28451579       4.37087191       9.94599679       29      -0.00163044       0.00030167       0.00136935 
Cu      4.82519467       8.09091132      10.05202519       29      -0.00041362      -0.00066272      -0.00056066 
Cu      8.82019957       6.29837947       9.75210057       29      -0.00036133       0.00022506      -0.00251837 
Cu      3.85629194      10.38574135       9.87267574       29      -0.00221544       0.00087186      -0.00180733 
Cu      9.13220872       8.78720202       9.50797129       29       0.00173522       0.00115662       0.00093162 
Cu     12.11695710       5.03913736       9.18272961       29      -0.00195131       0.00303665      -0.00300357 
Cu     10.63615961      10.74712895       9.41249082       29       0.00098086      -0.00079063      -0.00215310 
Cu      8.10199242      11.06882706       9.37072188       29      -0.00342996      -0.00177233       0.00162581 
Cu     12.11024693      12.70268240       9.32994039       29       0.00195027      -0.00105414      -0.00097788 
Cu      5.35678165       5.80126637       8.97291978       29      -0.00034277       0.00114103      -0.00217045 
Cu     11.04292414       7.25131441       8.91974300       29       0.00201032      -0.00079392       0.00073712 
Cu      9.60683283      13.08085458       9.28470343       29      -0.00177148       0.00114188      -0.00061901 
Cu      7.06390460      13.33173127       9.19371959       29      -0.00066162       0.00306053      -0.00097667 
Cu     12.65301767       9.20368589       8.81449763       29      -0.00442385       0.00615266      -0.00645076 
Cu      6.93632597       7.69144725       8.79982446       29       0.00016726      -0.00322171       0.00222927 
Cu      5.92582296       9.94932408       8.63797688       29      -0.00186152       0.00157014      -0.00178211 
Cu     11.06170333       3.01414857       8.04115482       29      -0.00162597       0.00075531      -0.00248548 
Cu      8.51862621       3.24120715       7.96311510       29      -0.00080304      -0.00027549       0.00125329 
Cu      4.87797911      12.23274305       8.46066076       29       0.00318808      -0.00356849      -0.00020691 
Cu      9.09557286       7.08547305       3.42724496       29       0.00011747      -0.00458136      -0.00050793 
Cu      6.81559586       6.10451494       4.28114512       29       0.00030536       0.00157784       0.00112490 
Cu      9.38046433       9.64315314       3.29810955       29      -0.00029891      -0.00145786       0.00047909 
Cu     11.32193475       8.15887986       4.17726683       29      -0.00193424      -0.00145481       0.00022491 
Cu      7.14415143       8.65586541       4.05092860       29      -0.00099554      -0.00299500      -0.00098296 
Cu      8.89577156       5.93201329       5.60464414       29       0.00194450      -0.00206433      -0.00236469 
Cu     12.69170788       8.94972997       6.22461993       29      -0.00259358      -0.00124407       0.00034909 
Cu      8.20229972      10.72097647       5.22561169       29      -0.00171057       0.00093722      -0.00314588 
Cu     13.16884028       6.68365081       5.18194004       29      -0.00110832       0.00055447       0.00044127 
Cu      7.35334044       4.02012796       5.77009279       29       0.00135011       0.00148237      -0.00035315 
Cu      9.22027624       8.47204120       5.44451450       29      -0.00009743       0.00234155      -0.00210257 
Cu      4.93860303       7.73506483       4.96173569       29       0.00370725      -0.00089011      -0.00037095 
Cu      6.11446983      10.96321492       3.95557196       29       0.00131088      -0.00027033       0.00207571 
Cu     11.01459434       5.59310691       4.39733431       29       0.00001403       0.00048653       0.00085902 
Cu      9.67716861      12.71863034       5.14970226       29      -0.00017329       0.00332533      -0.00022523 
Cu      6.99369223       7.51606929       6.27813061       29      -0.00061377      -0.00013766      -0.00289148 
Cu     10.79046338      10.45282307       5.26627803       29      -0.00073296      -0.00384838      -0.00117270 
Cu      5.92823862       9.74517683       6.07848828       29      -0.00082580      -0.00072280      -0.00033824 
Cu      7.14929802      12.97695456       5.07088771       29       0.00178363      -0.00172363       0.00148889 
Cu      9.94422255       3.71629821       5.85953771       29      -0.00155403      -0.00236130       0.00136499 
Cu     11.08776230       7.02916434       6.38876138       29      -0.00197658       0.00067276      -0.00012136 
Cu      8.02017778       9.53197560       7.39388912       29       0.00021310      -0.00307040       0.00118043 
Cu      5.96153581      14.00949775       7.03084150       29       0.00259932      -0.00035075       0.00345749 
Cu     13.18491939       6.90358719       7.73484497       29       0.00115799      -0.00014644       0.00379080 
Cu      9.02256649       7.35751703       7.57471801       29      -0.00338041       0.00059502       0.00040759 
Cu      5.99142176       3.60285573       7.87129926       29       0.00252930       0.00100496       0.00100017 
Cu      5.40936399       5.61995154       6.39304178       29       0.00129957       0.00054375      -0.00236406 
Cu      4.91436199      12.01795345       5.91074151       29       0.00224988      -0.00160591      -0.00151849 
Cu      9.52117357      11.49023215       7.28939374       29       0.00369931       0.00588433      -0.00031298 
Cu     12.16726030       4.80767452       6.59630759       29       0.00000900       0.00018199       0.00160142 
Cu      7.51208755       5.49390890       7.72908705       29      -0.00491533       0.00196006      -0.00073600 
Cu     10.56403326       9.24635823       7.44235919       29      -0.00283241       0.00265998      -0.00093663 
Cu      4.80834689       7.88513504       7.50722650       29      -0.00106899      -0.00288443      -0.00068466 
Cu      6.99947291      11.75785962       7.22142798       29      -0.00339396       0.00316021       0.00098585 
Cu     10.99135597      13.44641545       7.19533592       29      -0.00056797       0.00175819      -0.00128134 
Cu      3.83872693      10.21410955       7.34122908       29       0.00055887       0.00003567      -0.00090671 
Cu      8.47473323      13.77386130       7.11049970       29       0.00030559      -0.00055699       0.00263798 
Cu     10.03608319       5.20455108       7.81360793       29       0.00301905       0.00350696       0.00694432 
Cu     12.08779222      11.20739664       7.33060805       29       0.00288120      -0.00491726       0.00389889 
