101
Lattice="16.8733615361 0.0 0.0 0.0 16.8733615361 0.0 0.0 0.0 16.8733615361" Properties=species:S:1:pos:R:3:Z:I:1:forces:R:3 energy=-308.808867482 pbc="F F F"
Cu      9.41095324       9.61084945      14.51315190       29      -0.00007932       0.00285241      -0.00429980 
Cu      7.23753608       8.50311875      13.91352980       29       0.00105694       0.00114459      -0.00164131 
Cu      9.45330111       7.24599405      13.67216269       29      -0.00038032       0.00007826      -0.00173667 
Cu      7.66220212      10.95277564      13.31488568       29       0.00061928      -0.00060553      -0.00072052 
Cu      5.05301596       7.38969753      13.23712964       29       0.00179647      -0.00340838      -0.00097752 
Cu      7.27132297       6.12465753      13.08259716       29       0.00164963      -0.00245193      -0.00011106 
Cu     11.23374969       8.91533904      12.93433875       29      -0.00121736       0.00262437      -0.00141112 
Cu      9.48300209       4.87560296      12.77213338       29       0.00173514      -0.00054375       0.00451919 
Cu     10.13246033      11.19810630      12.70132460       29      -0.00250557       0.00098736      -0.00010760 
Cu      5.47191903       9.84639826      12.71517337       29       0.00221281       0.00125736      -0.00044497 
Cu      5.12295226       5.01908892      12.39912046       29       0.00381289       0.00171756      -0.00028006 
Cu      7.29234632       3.78665438      12.17552276       29       0.00168442      -0.00074756      -0.00030243 
Cu     11.29313886       6.53777450      12.08764796       29       0.00107624       0.00223380       0.00162195 
Cu      8.86376377       9.11501133      12.10624455       29       0.00069398       0.00159172       0.00542865 
Cu      3.31643738       8.74657332      12.01043546       29       0.00172293      -0.00115028       0.00433316 
Cu      5.90880399      12.27883600      12.05463389       29      -0.00004851       0.00144069      -0.00023703 
Cu     13.03778639       8.20894178      11.29607292       29       0.00064320      -0.00195118       0.00322118 
Cu      6.69209959       8.00011409      11.48508574       29       0.00058718      -0.00349818       0.00008507 
Cu     11.32732221       4.20724650      11.18331914       29      -0.00031089      -0.00202683       0.00450025 
Cu      8.37991502      12.55945986      11.50243900       29      -0.00137773      -0.00077076       0.00163336 
Cu      8.90459017       6.74387239      11.24901055       29       0.00087475      -0.00056441       0.00348262 
Cu      3.74540413      11.14836818      11.45943065       29      -0.00290600      -0.00244453       0.00143645 
Cu     11.97340986      10.50567683      11.11137644       29      -0.00090638      -0.00049812       0.00003224 
Cu      4.49414558       6.87651708      10.83561794       29       0.00138021       0.00119343       0.00252068 
Cu      7.11497579      10.45130468      10.88882583       29      -0.00018302       0.00326945      -0.00200902 
Cu     10.83639640      12.76831728      10.83295682       29       0.00043605      -0.00293300      -0.00027265 
Cu     13.07860030       5.85258665      10.42902130       29       0.00250824      -0.00263959       0.00376456 
Cu      6.73978988       5.64234442      10.62107361       29      -0.00112813       0.00235533       0.00168342 
Cu     10.67270840       8.41984189      10.51797688       29       0.00488578      -0.00070495      -0.00251462 
Cu      8.94827181       4.34708476      10.37837930       29       0.00055093      -0.00251361       0.00081938 
Cu      9.58182934      10.70116290      10.27915589       29      -0.00318120       0.00249259      -0.00447400 
Cu      4.95927342       9.33151404      10.25438850       29      -0.00098459       0.00245408       0.00132130 
Cu      4.58010911       4.49093783      10.00749784       29       0.00312511       0.00093155      -0.00052223 
Cu      6.64338230      13.85741106      10.23260485       29       0.00058037       0.00026231       0.00149672 
Cu      6.73575199       3.26129928       9.78588073       29       0.00109085       0.00225946      -0.00194867 
Cu     10.71165993       6.05197051       9.64563933       29      -0.00546782       0.00436489       0.00147641 
Cu      8.31084388       8.61079250       9.66415554       29       0.00057491       0.00072561      -0.00455643 
Cu     13.75021126       9.77615141       9.46472573       29      -0.00254885       0.00123221       0.00033390 
Cu      2.76701149       8.26243529       9.60679994       29       0.00081340      -0.00183229       0.00347520 
Cu      9.06049327      14.09709918       9.64072554       29      -0.00109421       0.00162212       0.00255122 
Cu      5.34983497      11.79727689       9.64989292       29      -0.00517699      -0.00401679      -0.00065256 
Cu     12.66192800      12.03676862       9.25174463       29       0.00099095      -0.00079931       0.00265403 
Cu     12.46281018       7.72274160       8.90338719       29      -0.00359042      -0.00391065       0.00479430 
Cu     10.81024339       3.68059956       8.79060860       29       0.00101712      -0.00152234       0.00041273 
Cu      6.14624060       7.48684618       9.03743182       29      -0.00025380       0.00121229      -0.00131308 
Cu      7.82717357      12.01638177       9.05740828       29      -0.00225807      -0.00146529       0.00229909 
Cu      8.35671192       6.23401630       8.80497506       29       0.00359008       0.00292251      -0.00231273 
Cu      3.17805770      10.65534935       9.07656741       29      -0.00174443       0.00134715      -0.00078329 
Cu     11.38099327       9.99739533       8.67580681       29       0.00046397      -0.00358484       0.00150975 
Cu      3.95499560       6.37665897       8.42586554       29      -0.00071234       0.00493459       0.00110826 
Cu     10.30066194      12.29972995       8.42359587       29       0.00076898      -0.00289226      -0.00174574 
Cu     12.55012367       5.30973870       8.05954804       29       0.00078562      -0.00080166      -0.00157897 
Cu      6.55790407       9.93716454       8.43915092       29      -0.00001063      -0.00193761       0.00474311 
Cu      6.19946710       5.13036364       8.18506073       29       0.00307189       0.00022532      -0.00186266 
Cu      8.41952951       3.84676928       7.97615704       29       0.00087704       0.00036299      -0.00121548 
Cu     10.11316681       7.91446090       8.06553829       29       0.00044023      -0.00248370       0.00231548 
Cu      9.02625378      10.19785002       7.83396438       29       0.00035918       0.00503302       0.00381059 
Cu      4.39964919       8.79492051       7.81986372       29      -0.00286109       0.00185235       0.00111780 
Cu      4.07261724       3.99927558       7.60604713       29      -0.00084310       0.00041626      -0.00227820 
Cu     14.21101513       7.04794184       7.33583376       29       0.00258636      -0.00313126      -0.00087464 
Cu      6.09066548      13.38208169       7.82736352       29      -0.00002198      -0.00067043      -0.00436872 
Cu      6.68933206       7.08938814       2.36020963       29      -0.00288637      -0.00242630      -0.00253408 
Cu      7.93614119       9.18091378       2.96360410       29       0.00024981       0.00161536       0.00077366 
Cu      9.05363185       6.89619574       3.18103622       29       0.00128418      -0.00056373       0.00376574 
Cu      9.19733211      11.27851966       3.62761020       29       0.00059659      -0.00123668       0.00044804 
Cu     10.32069661       8.99244257       3.78856526       29       0.00389271       0.00069787      -0.00104394 
Cu      5.46059593       8.91219895       3.57965090       29      -0.00553402       0.00026321       0.00204883 
Cu     11.42405280       6.71999058       4.07053052       29       0.00020861      -0.00304482       0.00030403 
Cu      7.28721426       5.22320806       3.93461922       29      -0.00014745      -0.00008353      -0.00415154 
Cu     11.57022270      11.05060300       4.45926063       29       0.00190616       0.00143747      -0.00045911 
Cu      6.70748583      11.02407865       4.16801945       29       0.00277227       0.00151289      -0.00244445 
Cu     12.67542276       8.80223503       4.70414933       29      -0.00187317       0.00239996      -0.00119392 
Cu      5.06701242       6.46598125       4.16840762       29      -0.00248655       0.00088857       0.00010735 
Cu      9.66715811       5.02029632       4.76216665       29      -0.00087518       0.00187443      -0.00276413 
Cu      7.95362256      13.09627438       4.84643574       29      -0.00095504      -0.00014174       0.00095297 
Cu      7.22825623       7.59090271       4.76544178       29       0.00307706       0.00059675       0.00461102 
Cu      4.25646284      10.74371948       4.85598228       29      -0.00077739      -0.00171711       0.00141848 
Cu      8.47862790       9.68910688       5.38805588       29      -0.00143073      -0.00637099      -0.00037395 
Cu     12.02324214       4.87233294       5.66619060       29       0.00043347       0.00041222       0.00153364 
Cu      9.57891007       7.40220877       5.60739327       29      -0.00140746      -0.00114034      -0.00521545 
Cu      5.53408982      12.83693456       5.44030743       29       0.00170111      -0.00131489      -0.00250540 
Cu      7.89152918       3.37369369       5.56568886       29       0.00243381       0.00104353       0.00095645 
Cu      3.82666686       8.28751558       5.41115770       29      -0.00318982       0.00545327      -0.00174598 
Cu      9.75227320      11.80313215       6.02085277       29      -0.00235675       0.00511449       0.00303670 
Cu     10.83217488       9.49498430       6.24567831       29       0.00244027      -0.00068775      -0.00151502 
Cu      5.65030173       4.58251845       5.74183046       29      -0.00274844       0.00035034      -0.00454929 
Cu      6.01203478       9.42348703       5.99868648       29      -0.00213357      -0.00296665      -0.00026776 
Cu     11.92555402       7.22291789       6.47918303       29      -0.00346681       0.00286680      -0.00471907 
Cu     10.26976010       3.21554582       6.38888375       29      -0.00135339       0.00186983       0.00066377 
Cu      7.82450447       5.72285590       6.35846463       29       0.00221289       0.00192776       0.00306801 
Cu      3.48031844       5.87115239       6.04202078       29      -0.00077939      -0.00175902      -0.00083122 
Cu     12.13762907      11.56987036       6.84479453       29       0.00077192      -0.00266621       0.00040333 
Cu     13.22817295       9.34116245       7.07101517       29      -0.00085088      -0.00104946      -0.00031516 
Cu      7.27006436      11.50693452       6.62395698       29       0.00004356       0.00127136      -0.00096473 
Cu      5.62713203       6.96899611       6.59040169       29       0.00018828       0.00314075       0.00045158 
Cu     10.17457681       5.54962511       7.21452716       29      -0.00346737      -0.00028735       0.00160334 
Cu      2.66234641      10.08523583       6.69125154       29       0.00289210       0.00202735      -0.00363703 
Cu      8.49419646      13.62967532       7.24039201       29       0.00312484       0.00029906      -0.00221240 
Cu      7.77025668       8.10206817       7.21196600       29      -0.00269578      -0.00774688      -0.00395984 
Cu      4.79230460      11.27859269       7.24995129       29       0.00003248      -0.00217258      -0.00223905 
Cu      6.24127963       2.77626236       7.37497658       29       0.00188303       0.00141613      -0.00345266 
