101
Lattice="17.2925387403 0.0 0.0 0.0 17.2925387403 0.0 0.0 0.0 17.2925387403" Properties=species:S:1:pos:R:3:Z:I:1:forces:R:3 energy=-308.813170141 pbc="F F F"
Cu      7.81842812       8.81064850      13.83207756       29       0.00123295      -0.00092419       0.00080235 
Cu     10.17172446       9.49463160      14.36263292       29      -0.00111422      -0.00003445      -0.00122774 
Cu      5.48590853       8.08243512      13.20758596       29       0.00031185       0.00002706      -0.00280946 
Cu      9.56466675       7.07055948      14.30599250       29       0.00042016       0.00171288      -0.00167473 
Cu     12.08563374       9.01835898      12.81065506       29      -0.00193612      -0.00061341       0.00228565 
Cu      7.24223722       6.33896582      13.69631683       29       0.00006103      -0.00018783      -0.00465589 
Cu     11.46764640       6.60701949      12.74625651       29      -0.00152387       0.00061795      -0.00181588 
Cu      9.12101434       5.84997306      12.15114056       29      -0.00170633       0.00372140       0.00475057 
Cu      6.09857916      10.56421526      13.26983567       29      -0.00059440       0.00362725       0.00437516 
Cu      8.47365458      11.27555097      13.82809776       29      -0.00041829       0.00025506      -0.00017632 
Cu      9.51075494      13.16422191      12.52849897       29      -0.00015977      -0.00175175       0.00131749 
Cu      3.77268764       9.83414448      12.66480043       29      -0.00044022       0.00742922       0.00389771 
Cu      8.81234931       8.79398553       2.92990582       29       0.00141246       0.00100097       0.00116404 
Cu      7.97182674      11.14455257       3.26523539       29      -0.00236122      -0.00255381      -0.00221447 
Cu      6.95675595       7.10266622       3.17118922       29      -0.00352388      -0.00130004       0.00083947 
Cu     11.12700177       8.19293248       3.78224625       29      -0.00188023      -0.00122846       0.00051901 
Cu     10.27009008      10.54687678       4.08144689       29      -0.00033335      -0.00045334       0.00074292 
Cu      9.24460598       6.51811811       3.99258657       29       0.00066052      -0.00075488       0.00287537 
Cu      9.35850393      12.85619218       4.44980271       29       0.00221004       0.00071124       0.00212603 
Cu     13.39733603       7.59859506       4.67885846       29       0.00234522       0.00307083       0.00038794 
Cu      7.33535696       4.87929941       4.28508898       29      -0.00253001       0.00212026       0.00098673 
Cu      6.89291465       9.24253232       4.48638889       29       0.00159684       0.00028934       0.00065541 
Cu     12.54569506       9.94066790       4.99105626       29       0.00105499      -0.00001954      -0.00055939 
Cu     11.53150971       5.93787893       4.89728334       29       0.00095929      -0.00127109       0.00134080 
Cu      6.06002839      11.60744379       4.82804091       29      -0.00284172      -0.00143025      -0.00244501 
Cu     11.64038819      12.28655906       5.34881785       29       0.00450735      -0.00260613       0.00253767 
Cu      5.03787185       7.53341854       4.72362098       29       0.00081381       0.00050464      -0.00206482 
Cu      9.62155793       4.29242576       5.14798678       29       0.00194985      -0.00029862      -0.00244289 
Cu      9.20997771       8.64810249       5.37445839       29      -0.00086268      -0.00120737      -0.00096830 
Cu      8.33860742      10.97563213       5.71461014       29       0.00677003       0.00053591       0.00554469 
Cu      7.33355686       6.99633176       5.62295366       29      -0.00431101      -0.00343413       0.00130585 
Cu      7.43790289      13.31231829       6.00168700       29       0.00031652       0.00202704      -0.00028514 
Cu     11.49505030       8.05386901       6.26234182       29      -0.00491576       0.00065795      -0.00150477 
Cu      5.42398179       5.33220860       5.81681035       29       0.00388488       0.00126792      -0.00173322 
Cu      4.98786265       9.67209020       6.06858243       29       0.00106530       0.00151102      -0.00038179 
Cu     10.62413488      10.39536464       6.58516230       29      -0.00255079      -0.00284035      -0.00051347 
Cu     13.82294661       8.75378207       6.86527536       29       0.00242505       0.00146328      -0.00378453 
Cu      9.62482714       6.40281357       6.49166739       29       0.00121674      -0.00039209      -0.00207699 
Cu     13.18138334       6.27688725       6.80615735       29      -0.00046791      -0.00230525       0.00035975 
Cu      4.16081699      12.00522215       6.42085951       29       0.00217756       0.00299924       0.00265474 
Cu      9.73467490      12.76003822       6.92317273       29      -0.00168428      -0.00215728       0.00234733 
Cu     12.97682409      11.11060509       7.18255782       29       0.00085578       0.00116211      -0.00057097 
Cu      3.16554549       7.95266260       6.33509239       29      -0.00486634       0.00097440       0.00078482 
Cu     11.30620653       4.59465902       7.02930670       29       0.00318033       0.00310593      -0.00213387 
Cu      7.74140766       4.76893224       6.73734307       29      -0.00142432      -0.00303210      -0.00097597 
Cu      7.27409989       9.09853937       6.98164634       29      -0.00309368      -0.00109169       0.00206025 
Cu     12.06658651      13.42125185       7.55498960       29       0.00062089       0.00224240      -0.00092978 
Cu      5.90394513       3.17127348       6.98359590       29      -0.00522301      -0.00132737       0.00065177 
Cu      9.38753917       2.97843687       7.27078811       29       0.00527342      -0.00236868       0.00103019 
Cu      6.40627334      11.41775872       7.31747765       29      -0.00489902       0.00209722      -0.00095111 
Cu      5.41305765       7.43297564       7.22682379       29       0.00098447      -0.00231133       0.00048462 
Cu      5.54412942      13.72634523       7.59969336       29       0.00132054       0.00117115      -0.00268952 
Cu      9.56251102       8.51265810       7.86886494       29       0.00176801      -0.00334569       0.00336198 
Cu      3.58337206       5.72871788       7.44245621       29       0.00029908       0.00108305      -0.00048029 
Cu      3.10083110      10.09182048       7.67101866       29      -0.00035999       0.00216341       0.00093388 
Cu      8.68507442      10.85010299       8.19248236       29      -0.00172008       0.00031930       0.00057891 
Cu     11.90237084       9.20927519       8.45999884       29      -0.00200550      -0.00092646       0.00600506 
Cu      7.69093399       6.86326300       8.11825231       29      -0.00110547       0.00244450      -0.00186799 
Cu     11.26573329       6.73347100       8.40169347       29      -0.00187872       0.00344630       0.00360558 
Cu      7.82482437      13.20233946       8.49911857       29      -0.00060477      -0.00013692      -0.00013844 
Cu     11.01848273      11.53766700       8.78486765       29      -0.00231256      -0.00143636      -0.00018502 
Cu     14.19170764       9.91819374       9.08836330       29      -0.00353315      -0.00017455       0.00164166 
Cu     13.62130030       7.42844982       9.00254315       29       0.00227608       0.00098389       0.00058825 
Cu      5.83823401       5.20466569       8.34682882       29      -0.00292614       0.00533876      -0.00239047 
Cu      9.38074618       5.09132919       8.63639259       29       0.00185084      -0.00172672       0.00146458 
Cu     12.90844369       4.96708430       8.96716755       29       0.00381644       0.00076951       0.00100638 
Cu      5.33506619       9.53867872       8.59056300       29       0.00296021       0.00196980       0.00378779 
Cu     10.17894517      13.89383711       9.14304789       29      -0.00419860       0.00233499      -0.00350231 
Cu     13.31906785      12.26180470       9.38506139       29       0.00401786      -0.00204715      -0.00230437 
Cu     11.00786015       3.31164373       9.16823276       29       0.00120971       0.00116383      -0.00000940 
Cu      7.53823295       3.38295492       8.86785263       29       0.00052366      -0.00023798      -0.00419271 
Cu      4.44636384      11.88393603       8.90837323       29      -0.00181316       0.00005648      -0.00114857 
Cu      3.45695265       7.84194507       8.82093758       29      -0.00362163       0.00321955       0.00105986 
Cu      7.62167063       8.97105609       9.47811784       29       0.00153670       0.00186271      -0.00334739 
Cu      6.74207904      11.30068784       9.80255213       29      -0.00078887      -0.00490018      -0.00307729 
Cu      9.96361291       9.66773020      10.06997086       29      -0.00116896      -0.00649281      -0.00076620 
Cu      5.75142616       7.30074395       9.72710507       29       0.00145478      -0.00182536       0.00046086 
Cu      9.33426622       7.19134899      10.01390283       29       0.00619204       0.00230391      -0.00210239 
Cu      5.91117396      13.61487011      10.08554181       29      -0.00250300       0.00179684       0.00108526 
Cu      9.08478993      11.99378831      10.38267391       29       0.00270840      -0.00550837       0.00034055 
Cu     12.30252655      10.38082712      10.68684065       29       0.00484519      -0.00087520      -0.00089585 
Cu     11.66117786       7.89679398      10.58839624       29      -0.00298406       0.00043415      -0.00333163 
Cu      3.93341229       5.60297407       9.92920799       29      -0.00005748      -0.00295758      -0.00107451 
Cu      7.47144357       5.53039289      10.26548943       29       0.00045609      -0.00170378       0.00223766 
Cu     11.02238957       5.40097591      10.56795774       29       0.00386068       0.00049113      -0.00390152 
Cu      3.41294551       9.96771949      10.18487399       29      -0.00246528       0.00325022       0.00513600 
Cu      8.25060571      14.31410187      10.69833144       29       0.00369200       0.00231744       0.00056846 
Cu     11.42746155      12.74498084      10.96064245       29      -0.00264336      -0.00127028       0.00172006 
Cu     13.96512428       8.57736499      11.20714519       29       0.00415178       0.00345193      -0.00014172 
Cu      5.66361330       3.86178022      10.42632019       29      -0.00191243      -0.00232401       0.00156279 
Cu     13.34179126       6.15260744      11.14298358       29       0.00307280       0.00178739       0.00215553 
Cu      9.11818433       3.74564950      10.76039667       29       0.00004162       0.00098486      -0.00365123 
Cu      5.68409038       9.41241023      11.08431572       29      -0.00326922      -0.00232646      -0.00398383 
Cu      4.81366923      11.73807533      11.39864183       29      -0.00130105       0.00188875      -0.00435079 
Cu      8.02678013      10.12854124      11.67837697       29      -0.00349438      -0.00575745      -0.00350984 
Cu      3.83685089       7.71699123      11.31790575       29       0.00345840      -0.00775007      -0.00477631 
Cu      7.40642311       7.66483387      11.61197735       29      -0.00236865      -0.00344798       0.00566205 
Cu      7.15082750      12.47732944      12.00539378       29       0.00193531       0.00198527      -0.00125554 
Cu     10.39982869      10.83585591      12.26479440       29      -0.00040823      -0.00117899      -0.00329262 
Cu      9.73596874       8.35547262      12.19215512       29       0.00490412       0.00187743       0.00539211 
Cu      5.56723201       5.93582234      11.85323134       29      -0.00355256       0.00021673       0.00208065 
