101
Lattice="17.6443690468 0.0 0.0 0.0 17.6443690468 0.0 0.0 0.0 17.6443690468" Properties=species:S:1:pos:R:3:Z:I:1:forces:R:3 energy=-308.746323416 pbc="F F F"
Cu      8.37158597      11.27043806      14.60521459       29       0.00169527       0.00314334       0.00403264 
Cu     10.53121347       9.88072119      14.55433680       29       0.00102521      -0.00181299      -0.00121559 
Cu     12.61526132       8.44067988      14.35306010       29       0.00084162       0.00240447       0.00171482 
Cu      6.11268702      11.67020416      13.52697911       29       0.00176280       0.00161205       0.00160759 
Cu     10.48870626      12.22583871      13.57231036       29      -0.00041877       0.00034791       0.00097051 
Cu      7.08754941       9.36875413      13.62091327       29      -0.00310652      -0.00117231      -0.00074145 
Cu      9.23231098       7.95370505      13.56989871       29      -0.00109877      -0.00035886      -0.00120383 
Cu     12.63196568      10.79574966      13.45519361       29       0.00143292       0.00063504       0.00136743 
Cu     11.35002298       6.54564488      13.36172797       29       0.00127830       0.00016440       0.00216912 
Cu      6.90614380       6.85639288      13.01559734       29      -0.00117940      -0.00238553      -0.00079185 
Cu      8.20830982      12.70238975      12.51741735       29       0.00356539       0.00191152      -0.00127375 
Cu     12.58523028      13.12092718      12.47748837       29       0.00181667       0.00264645       0.00069520 
Cu      9.20108015      10.34991807      12.50484326       29      -0.00016962      -0.00033807      -0.00618182 
Cu      9.06057809       5.42184103      12.88199787       29       0.00058447      -0.00007558       0.00067943 
Cu     11.32463002       8.92545460      12.36964579       29      -0.00113001       0.00276632      -0.00291159 
Cu      4.47703334      10.99392769      11.66270611       29       0.00344970       0.00125544       0.00045767 
Cu      6.77934249       4.40291485      12.30125811       29       0.00259369      -0.00301271      -0.00290867 
Cu      5.93769391      13.05862309      11.40346876       29       0.00107727       0.00050830      -0.00049483 
Cu      5.44849319       8.66265510      11.77447825       29       0.00038987       0.00190914      -0.00093858 
Cu     13.83374343       8.94957507      12.18493848       29       0.00065584       0.00051653       0.00057974 
Cu     10.34832448      13.61236414      11.41890514       29      -0.00303303      -0.00132170       0.00308826 
Cu      6.95704482      10.75703513      11.43500335       29      -0.00224462      -0.00060946       0.00539347 
Cu      7.94448105       8.47587485      11.48206976       29      -0.00243265       0.00102431      -0.00212469 
Cu     11.30702635      11.28339906      11.41427703       29      -0.00405146      -0.00172260      -0.00211210 
Cu     13.79376096      11.29917979      11.21059989       29       0.00037600       0.00232309      -0.00511443 
Cu     10.05654719       7.07855274      11.34975987       29      -0.00006074       0.00173970      -0.00359346 
Cu      5.31279828       6.12289062      11.10975374       29       0.00074912      -0.00299264      -0.00029798 
Cu     11.11808432       4.85031254      11.39402920       29       0.00176934      -0.00247410       0.00067267 
Cu      8.06523624      14.03325182      10.33089064       29       0.00027969       0.00222102       0.00056566 
Cu     12.58431124       6.99992122      11.18024768       29       0.00087058       0.00046166       0.00162238 
Cu      7.79595482       6.03331797      10.82754671       29       0.00015636      -0.00110141       0.00057236 
Cu      9.07246612      11.75536737      10.35917197       29       0.00078677       0.00067365       0.00404682 
Cu      8.79791617       3.77526948      10.86561915       29       0.00156397      -0.00298141       0.00171238 
Cu     10.03547971       9.44966706      10.36821024       29       0.00168936       0.00481322       0.00329779 
Cu      2.96204063      10.22008943       9.73594346       29       0.00080427      -0.00237248       0.00121055 
Cu     12.37851478      13.03338473       9.96031948       29      -0.00081987       0.00083077       0.00106932 
Cu      4.35567980      12.32782310       9.49748377       29       0.00281138       0.00199507       0.00099755 
Cu      3.93523059       7.91614370       9.83581365       29      -0.00110498       0.00093594      -0.00230636 
Cu     12.49724896       9.42909025      10.14689748       29      -0.00477163       0.00257110       0.00023708 
Cu      5.81406822      14.37428805       9.24545010       29      -0.00042842      -0.00017904       0.00121584 
Cu      5.38350749      10.03137751       9.54721757       29       0.00028392      -0.00195569       0.00022644 
Cu      6.82562526      12.11346447       9.28052098       29      -0.00538113       0.00775784      -0.00049408 
Cu      6.39468156       7.76195659       9.62609216       29       0.00198096       0.00060401      -0.00297020 
Cu     14.93324359       9.43723380       9.91449304       29       0.00198769      -0.00166608      -0.00186937 
Cu      6.46953467       4.22456924       9.75807515       29       0.00248230      -0.00272945      -0.00024797 
Cu      7.82383704       9.85764434       9.31848382       29       0.00116242      -0.00356657      -0.00116544 
Cu      8.80481327       7.65016515       9.36549998       29       0.00077289      -0.00276506      -0.00026956 
Cu     10.11361531      13.51640090       8.86608297       29      -0.00005559       0.00234082       0.00139881 
Cu      9.81635910       5.47004887       9.36995543       29      -0.00238271       0.00324994      -0.00136049 
Cu     11.10028361      11.17260597       8.90109498       29      -0.00197578      -0.00042491      -0.00171636 
Cu     11.22164598       7.55616505       9.16046912       29      -0.00313055      -0.00485814      -0.00104818 
Cu     10.81830620       3.27008100       9.38649963       29       0.00043111      -0.00012036       0.00255969 
Cu     12.31266158       5.33547750       9.13304981       29       0.00031281       0.00039163       0.00048753 
Cu     13.59519571      11.18719111       8.65817422       29      -0.00133930      -0.00003563       0.00046919 
Cu     13.69698590       7.51088004       8.92892693       29       0.00233332      -0.00122929      -0.00222433 
Cu      5.01612296       6.00667217       8.50980948       29      -0.00058079      -0.00189406      -0.00075687 
Cu      7.81705543      13.86938832       7.78379369       29       0.00035016       0.00000742       0.00003110 
Cu      7.52606037       5.90967679       8.29567465       29       0.00201057       0.00180297      -0.00164001 
Cu      2.71112545       8.63715217       7.77901016       29       0.00127390       0.00061306      -0.00211993 
Cu      8.83207739      11.59029780       7.82463160       29       0.00162702      -0.00152588      -0.00105025 
Cu      4.05359752      10.76523245       7.50124673       29      -0.00075153       0.00015316       0.00042450 
Cu      9.82539817       9.27654281       7.88679152       29      -0.00185429       0.00140618       0.00081515 
Cu      8.52947935       3.65197502       8.27334571       29      -0.00187552       0.00038294      -0.00007513 
Cu      5.52487801      12.84319615       7.25880379       29      -0.00026339      -0.00096433      -0.00073375 
Cu      5.13923673       8.45027116       7.60267820       29      -0.00017732       0.00171908       0.00099718 
Cu      6.54821266      10.56841933       7.30872796       29      -0.00263643       0.00011447       0.00049500 
Cu     12.12873583      12.88220060       7.41022178       29       0.00081637      -0.00174785       0.00023657 
Cu     12.28093613       9.24280881       7.63344418       29       0.00016811       0.00058355       0.00015614 
Cu      7.56850185       8.28019973       7.39887620       29      -0.00071307       0.00020391       0.00323829 
Cu     14.71174673       9.27871539       7.39322882       29       0.00017977      -0.00301588       0.00052255 
Cu      9.64807068       6.81955194       7.25054661       29      -0.00399988      -0.00232998       0.00058716 
Cu      6.22475843       4.17972642       7.17833471       29       0.00162227       0.00046800      -0.00154270 
Cu     10.72092372       4.59010067       7.19870403       29      -0.00201404      -0.00201136       0.00092170 
Cu      9.84989812      13.28979702       6.32384288       29       0.00115620      -0.00116434      -0.00215849 
Cu     12.09477737       6.76809458       6.99413889       29       0.00470776       0.00068374      -0.00602814 
Cu     10.83488213      10.96547488       6.40362251       29      -0.00052837       0.00173576       0.00147378 
Cu      3.78107324       6.75874473       6.43088637       29      -0.00195747      -0.00145216      -0.00032722 
Cu      6.24814428       6.52184399       6.25939936       29       0.00084230      -0.00147054      -0.00045703 
Cu      7.54364888      12.31473687       5.76580783       29       0.00003422       0.00113371      -0.00030607 
Cu     13.30268351      10.99626041       6.12714316       29      -0.00070747      -0.00160740       0.00117520 
Cu      8.57247601       9.98925487       5.86185651       29       0.00298600       0.00025748      -0.00021327 
Cu      3.85388023       9.12458093       5.56178261       29       0.00089098       0.00273510      -0.00120096 
Cu      8.37317266       5.03319191       6.07768785       29       0.00141429       0.00128268       0.00299694 
Cu      5.27472723      11.22358510       5.28923936       29      -0.00262628       0.00071988       0.00007685 
Cu     10.69942617       8.50171923       5.71483067       29      -0.00069379       0.00110084      -0.00012009 
Cu      6.31192937       8.95553420       5.38595750       29      -0.00126949      -0.00169371       0.00275904 
Cu     14.50838869       6.90719323       6.65715995       29      -0.00801922      -0.00227484      -0.00044991 
Cu      9.24554685       6.79106639       3.03915446       29      -0.00189067      -0.00026244       0.00362841 
Cu     11.52383825       7.78709370       3.52905856       29       0.00079105       0.00073372       0.00102436 
Cu      7.13732397       8.19797457       3.18362012       29       0.00143685      -0.00135470       0.00019879 
Cu     11.70498050      10.24906752       4.19051713       29      -0.00060283      -0.00144549       0.00220751 
Cu     10.49537104       6.01859016       5.05225146       29      -0.00151390      -0.00126883       0.00075590 
Cu      9.42800470       9.24143337       3.62718479       29       0.00081243       0.00012285      -0.00096404 
Cu     11.84662390      12.66466739       4.90941996       29      -0.00125745      -0.00007541       0.00079420 
Cu     13.17834128       8.58461487       5.39059307       29       0.00642175      -0.00107290       0.00204835 
Cu      5.00224298       7.23997554       4.24635292       29      -0.00072667       0.00011658      -0.00255130 
Cu      7.29599110      10.65110793       3.84275187       29      -0.00031253       0.00031024      -0.00192880 
Cu      9.58327684      11.69133631       4.34361440       29      -0.00002085       0.00248277       0.00231749 
Cu      7.10597026       5.81949299       4.03070520       29       0.00098365       0.00087069      -0.00345307 
Cu     12.96034710       6.18348055       4.78825901       29      -0.00021172      -0.00087258       0.00304563 
Cu      8.41600149       7.52427420       5.22700961       29       0.00122160      -0.00172868      -0.00239175 
