101
Lattice="17.2822585891 0.0 0.0 0.0 17.2822585891 0.0 0.0 0.0 17.2822585891" Properties=species:S:1:pos:R:3:Z:I:1:forces:R:3 energy=-308.717535146 pbc="F F F"
Cu     10.15556860       9.18177460      14.65376620       29      -0.00033086      -0.00026495      -0.00008092 
Cu      9.74518890      11.23474161      13.22723473       29       0.00030789      -0.00000064       0.00027975 
Cu      7.82241625      10.15478193      14.50190755       29       0.00025230      -0.00006240       0.00024133 
Cu     12.08212075      10.20474682      13.34107957       29       0.00014430      -0.00014015       0.00027959 
Cu      8.30386697       7.86428323      13.61508383       29      -0.00008346       0.00054080       0.00000357 
Cu     11.91498515       7.68124426      13.54956057       29       0.00032185       0.00015092       0.00005624 
Cu      7.37558736      12.17303548      13.02649795       29       0.00026657       0.00046030       0.00007183 
Cu      9.30117295      13.22162676      11.67238461       29       0.00049246       0.00020132       0.00044823 
Cu      5.66067438      10.29533109      13.11242754       29      -0.00031090      -0.00014527       0.00009612 
Cu     11.66252777      12.22839737      11.82918516       29       0.00001226       0.00000772       0.00013252 
Cu     10.22186558       8.92666455      12.22779933       29      -0.00035072      -0.00022934       0.00037930 
Cu      6.14068713       7.97427764      12.23000953       29       0.00024434      -0.00012077      -0.00039173 
Cu     13.95840635      11.18931667      11.95461734       29       0.00067839       0.00026974      -0.00020984 
Cu      7.48811893       5.72365594      12.40111649       29       0.00001235       0.00002874      -0.00035197 
Cu     13.80905392       8.68404729      12.16783414       29      -0.00005706      -0.00052388       0.00040367 
Cu     10.04632767       6.34044335      12.50489864       29      -0.00028412      -0.00002683       0.00024789 
Cu     13.58300052       6.18097783      12.37872651       29      -0.00033569       0.00011411       0.00013181 
Cu      6.95247735      14.13231269      11.48614354       29      -0.00010793      -0.00008661       0.00040176 
Cu      5.24059220      12.27312346      11.57001402       29       0.00042321      -0.00001824       0.00005527 
Cu      3.57639564      10.35040371      11.60139294       29       0.00038287       0.00019942       0.00008659 
Cu      9.81997107      10.97007176      10.73362489       29       0.00029197      -0.00005797      -0.00001979 
Cu      7.89983922       9.89899365      12.08246718       29       0.00002523       0.00007795       0.00020898 
Cu      4.06492025       8.06202382      10.71356990       29       0.00002047       0.00001794      -0.00008111 
Cu     12.11632434       9.94155259      10.86272530       29       0.00002021      -0.00006327       0.00072434 
Cu      8.39222413       7.64338101      11.15393038       29      -0.00018787      -0.00013765       0.00015325 
Cu     11.94632476       7.39732326      11.04870613       29       0.00023533      -0.00012614       0.00005181 
Cu      5.34884688       5.82415681      10.93647903       29       0.00022326      -0.00015287       0.00041350 
Cu      6.71475690       3.66893692      11.08830045       29      -0.00005375      -0.00008618      -0.00005331 
Cu      9.22134085       4.20615148      11.20767333       29       0.00018466      -0.00036414       0.00011877 
Cu     14.26481840       7.25409832      10.11144398       29      -0.00024121      -0.00025746      -0.00007782 
Cu     11.71926857       4.85973671      11.29150361       29      -0.00003147      -0.00069244       0.00005919 
Cu     13.99907466       4.80534997      10.38150300       29      -0.00017663       0.00018496       0.00047230 
Cu      8.36750735      13.94836885       9.39702030       29       0.00065886      -0.00055216      -0.00051311 
Cu      7.48056470      11.89921936      10.55800976       29      -0.00033249       0.00037295      -0.00081059 
Cu      5.78104790       9.99900855      10.63523424       29       0.00035546       0.00003161      -0.00005181 
Cu     10.75619690      13.02163254       9.56437398       29       0.00006886      -0.00016866      -0.00032841 
Cu      8.00027554       9.66746429       9.64278957       29      -0.00049558       0.00014166       0.00067650 
Cu      6.30909514       7.74200348       9.72874685       29      -0.00015462      -0.00036132       0.00027918 
Cu     13.09011298      11.96702384       9.71601285       29      -0.00052941      -0.00051237      -0.00068168 
Cu      7.61364746       5.58389197       9.90868634       29      -0.00012039       0.00003577      -0.00002038 
Cu     14.40918500       9.77876268       9.90073007       29       0.00221883       0.00514335      -0.00239094 
Cu     10.09776253       6.16397443       9.98065815       29      -0.00026319       0.00027779      -0.00057285 
Cu      5.86610036      13.38774841       9.33176506       29       0.00008330      -0.00003355      -0.00025297 
Cu     12.38371257       5.92832014       8.96200303       29      -0.00013293      -0.00020608       0.00086435 
Cu      4.13097315      11.50587105       9.40210653       29      -0.00016506      -0.00007343      -0.00004464 
Cu      4.73310989       9.19569016       8.49102854       29       0.00076897       0.00351732      -0.00364518 
Cu      4.37510030       6.60131343       8.61764492       29      -0.00023263       0.00024210      -0.00049244 
Cu      8.89249812      11.69863811       8.47054438       29       0.00073534       0.00054011      -0.00025472 
Cu      6.40681509      11.13769269       8.41070721       29      -0.00639862      -0.00647565      -0.00382897 
Cu      5.73846230       4.37088093       8.82059291       29       0.00011359       0.00057001      -0.00014494 
Cu     10.29202158       8.69444614       9.78196024       29      -0.00435133       0.00190700       0.00055657 
Cu      8.50739429       7.48134498       8.73379277       29       0.00146674      -0.00258533       0.00064377 
Cu      9.59224893       9.24338484       2.69371278       29       0.00012795      -0.00027437       0.00037493 
Cu      7.11492377       8.70693069       2.62849239       29      -0.00006019       0.00007001      -0.00008549 
Cu     10.87103977       7.10802837       5.21323441       29       0.00029593      -0.00035639      -0.00010228 
Cu      8.69958663       7.20805230       3.84545376       29      -0.00022760      -0.00031165      -0.00013488 
Cu      5.13230498       7.68626530       3.89993352       29       0.00003166      -0.00012293      -0.00005186 
Cu     11.76749829       9.17791544       4.07160440       29       0.00034313       0.00046645      -0.00002977 
Cu      7.91499670      10.80984757       3.79557909       29       0.00023352       0.00049492       0.00029062 
Cu      5.43486456      10.20414422       3.79909475       29      -0.00009126      -0.00010776      -0.00023049 
Cu     11.29084318       5.03031030       6.77066988       29      -0.00010239      -0.00027417      -0.00004845 
Cu      9.14316681       5.12718367       5.32796232       29       0.00016703      -0.00016566      -0.00024892 
Cu      6.72897335       6.16696328       5.12729163       29      -0.00025279      -0.00012621       0.00034463 
Cu     12.95375711       7.01661662       6.71656347       29      -0.00055296       0.00010127      -0.00027854 
Cu      3.26239001       6.68445927       5.29141814       29       0.00038972      -0.00016104      -0.00017441 
Cu      9.50256237       9.31462960       5.12256857       29       0.00003709       0.00019662      -0.00034621 
Cu     13.85089459       9.05616933       5.58240704       29       0.00011485      -0.00009109      -0.00013179 
Cu      7.04380063       8.77141481       5.06637885       29       0.00005625       0.00002444      -0.00008401 
Cu     10.41379960      11.32298287       3.90752887       29       0.00006442       0.00032107      -0.00038758 
Cu      3.49203627       9.18470701       5.13568617       29       0.00009573      -0.00003642      -0.00029914 
Cu      6.22624593      12.28815732       5.04542903       29       0.00026981       0.00013299       0.00015745 
Cu     10.29288597      11.38503927       6.38895785       29       0.00005278       0.00020814      -0.00051403 
Cu      9.04300226       5.32322105       7.82088251       29       0.00021171       0.00047742      -0.00006565 
Cu      3.12081239      10.62980823       7.22714863       29      -0.00003492       0.00010581       0.00019399 
Cu      8.61045333       7.31692847       6.31267647       29      -0.00078002      -0.00030344      -0.00024721 
Cu      5.11814077       7.75394792       6.41036027       29      -0.00028373      -0.00011956       0.00015140 
Cu     11.62687989       9.22235919       6.56109734       29      -0.00048958      -0.00036288      -0.00083395 
Cu      9.57078224       3.14994590       6.89935752       29       0.00024433      -0.00073871      -0.00046507 
Cu      7.82658640      10.87655156       6.30219857       29       0.00015478       0.00000015       0.00041958 
Cu     10.71098734       3.94737042       9.07249650       29       0.00005822       0.00011510       0.00010649 
Cu      7.19096754       4.10854973       6.68762479       29      -0.00041936      -0.00041803       0.00008447 
Cu     12.55277934      11.22777226       5.36021848       29       0.00019448       0.00046591      -0.00030752 
Cu      8.72327430      12.86334344       5.09637941       29      -0.00044815       0.00041052       0.00034125 
Cu      5.37158085      10.29124237       6.26764274       29      -0.00016840      -0.00018096       0.00029517 
Cu      4.82834332       5.20085732       6.52950338       29      -0.00033250       0.00024663      -0.00006114 
Cu     14.76694983       8.32813688       7.83305976       29      -0.00013145      -0.00011736       0.00001867 
Cu     12.16060189      12.69792794       7.43710286       29       0.00037422       0.00052162       0.00026642 
Cu      2.81194533       8.11332331       7.33841142       29       0.00044694      -0.00064434       0.00000238 
Cu      4.80429404      12.54929320       7.15477489       29       0.00034310       0.00079287       0.00032651 
Cu      9.39519657       9.41435302       7.57038861       29      -0.00079644       0.00071148       0.00025361 
Cu     13.53552435      10.54208864       7.62184970       29      -0.00000682      -0.00015082       0.00017097 
Cu      6.96916545       8.87087103       7.52262245       29       0.00584193       0.00708293       0.00393857 
Cu      2.51530876       9.55420720       9.44176569       29      -0.00200964      -0.00387315       0.00271602 
Cu     11.19811384      13.35455145       5.19485320       29       0.00010309       0.00030596      -0.00046121 
Cu     11.24056449      10.71114209       8.62826023       29       0.00498024      -0.00184907       0.00016677 
Cu      8.14601631       3.34329715       9.00009057       29      -0.00156074       0.00150017      -0.00028528 
Cu     10.69478221       7.23206365       7.71627834       29      -0.00001936       0.00010263       0.00063588 
Cu      7.28347070      13.18849980       7.19829527       29       0.00025358       0.00017529       0.00077557 
Cu      6.69363371       6.32617638       7.65027600       29       0.00057808      -0.00034766      -0.00056381 
Cu      9.79900523      13.68636326       7.27636159       29      -0.00023486      -0.00076053       0.00012294 
Cu     12.53901632       8.50667252       8.80031200       29      -0.00234340      -0.00364402       0.00104656 
