101
Lattice="17.5975142238 0.0 0.0 0.0 17.5975142238 0.0 0.0 0.0 17.5975142238" Properties=species:S:1:pos:R:3:Z:I:1:forces:R:3 energy=-308.698334317 pbc="F F F"
Cu      9.49589400      11.54150592      14.24394614       29      -0.00084646       0.00172086       0.00047942 
Cu      8.72053341       9.14014015      14.07569237       29      -0.00056880       0.00028517       0.00073398 
Cu     11.15925560       9.75265399      13.60131647       29       0.00061529       0.00045052       0.00092400 
Cu      7.93827551       6.70519711      13.84215733       29       0.00100228      -0.00129957       0.00118481 
Cu     10.39425371       7.30536631      13.42274676       29       0.00081904      -0.00095211       0.00098593 
Cu      7.22598864      11.05372971      13.25571883       29       0.00033898      -0.00019191       0.00056248 
Cu      7.17268997       4.31393494      13.54708411       29       0.00006358      -0.00101856       0.00071666 
Cu      6.41648016       8.62361240      13.07891927       29       0.00009840      -0.00059334      -0.00168924 
Cu      9.59785468       4.88273201      13.12713754       29       0.00042489       0.00028934       0.00040752 
Cu     12.81843804       7.93373706      12.88277255       29      -0.00057771       0.00063594       0.00151343 
Cu      5.65906207       6.18795554      12.79160847       29      -0.00031130       0.00116862       0.00061162 
Cu      4.95203737      10.53057610      12.18860848       29      -0.00039684      -0.00049544      -0.00031253 
Cu     12.04181233       5.50366275      12.64379549       29       0.00068689      -0.00158183       0.00042999 
Cu      8.73093801      12.86512550      12.22805096       29       0.00098299       0.00032908      -0.00124234 
Cu     11.19629243      12.06107379      12.45127630       29       0.00016512       0.00069035      -0.00157517 
Cu      4.16721216       8.10085725      11.95693055       29       0.00130703       0.00119908       0.00103053 
Cu      9.33962940      10.45850369      12.02166244       29      -0.00165310       0.00020061       0.00030709 
Cu     12.88712434      10.26399461      11.78969421       29      -0.00056022       0.00015021       0.00018394 
Cu      8.56271021       8.05344214      11.84095200       29      -0.00317710       0.00065505      -0.00103395 
Cu     14.42468437       6.14905851      12.10977476       29       0.00092708       0.00081686      -0.00036919 
Cu     10.99132825       8.66159519      11.36250837       29       0.00125855      -0.00077302       0.00067571 
Cu      6.43536780      12.38336729      11.21078867       29       0.00077837       0.00185281      -0.00047071 
Cu      7.79528958       5.65781171      11.56210703       29       0.00012027       0.00060795      -0.00091612 
Cu     10.21420250       6.23549205      11.12448089       29       0.00052722      -0.00252002      -0.00080177 
Cu      7.07986761       9.95793689      11.02459352       29      -0.00080505      -0.00201713       0.00088335 
Cu      5.89351990       4.06278821      11.38088666       29       0.00012377       0.00034708      -0.00110334 
Cu      8.34163384       3.24938310      11.58646516       29       0.00004916       0.00082372       0.00061097 
Cu      2.74822126       9.99237507      11.07540438       29       0.00044635       0.00006606      -0.00022653 
Cu     10.81236228       3.82605294      11.14682512       29       0.00115561       0.00228699      -0.00097270 
Cu     14.50204001       8.43614198      11.03114645       29       0.00051297       0.00043229       0.00107623 
Cu      6.29767772       7.52986354      10.79545353       29       0.00295307      -0.00046272       0.00071503 
Cu     12.59588618       6.87479818      10.60157116       29      -0.00065414       0.00139740       0.00061595 
Cu      7.96986828      14.13023360      10.13174118       29       0.00023322      -0.00217048      -0.00093696 
Cu      4.36391128       5.94555253      10.58537028       29      -0.00019493      -0.00054212      -0.00028252 
Cu     10.43748943      13.39875363      10.42781877       29       0.00009130      -0.00119384       0.00045490 
Cu     13.24114229       4.48922328      10.62869083       29      -0.00034983       0.00014111       0.00135336 
Cu     12.87344783      12.53380214      10.57486440       29      -0.00070394      -0.00086751      -0.00078640 
Cu      8.57002993      11.76742320       9.97096590       29       0.00087324       0.00061691       0.00010645 
Cu      4.19912895      11.81812184      10.10440587       29      -0.00057050       0.00011944       0.00021793 
Cu     14.49729113      10.71776274       9.89570906       29       0.00079751       0.00054564      -0.00071621 
Cu     11.04279802      10.96386340      10.19393343       29       0.00022569       0.00101774      -0.00016880 
Cu      9.19275012       9.38155507       9.80501563       29       0.00027361      -0.00241927       0.00004559 
Cu     12.65289394       9.15637031       9.49163997       29      -0.00088926      -0.00030737       0.00039492 
Cu      4.87191145       9.41767849       9.93263452       29      -0.00238037       0.00099657      -0.00078592 
Cu      2.93179066       7.86992429       9.71396881       29       0.00072052       0.00037599      -0.00130463 
Cu      8.42357090       6.97219731       9.58309597       29       0.00067829       0.00052860       0.00160252 
Cu     10.80068807       7.57129036       9.09741362       29      -0.00174638      -0.00060266      -0.00102445 
Cu      6.54448032       5.41875215       9.35666010       29      -0.00060556       0.00066575       0.00042234 
Cu     11.40673672       5.16985506       9.09445776       29      -0.00098799       0.00065780       0.00217455 
Cu     14.78791753       6.30431024       9.62603797       29       0.00012615      -0.00068805       0.00102556 
Cu      5.72081968      13.59128937       9.09849059       29       0.00197826      -0.00065843      -0.00082913 
Cu      8.97826115       4.54627142       9.57104267       29       0.00070479      -0.00027343      -0.00026240 
Cu      4.66272935       3.87451615       9.15874536       29       0.00005912       0.00024614       0.00032608 
Cu      7.04081641       3.00309241       9.39882220       29      -0.00022793       0.00009681       0.00036544 
Cu      6.33763934      11.23082584       8.93053032       29       0.00029002       0.00065476      -0.00068981 
Cu      2.94314621      10.17572228       8.56586020       29       0.00019047      -0.00138892       0.00002771 
Cu      6.97924861       8.84130198       8.78931360       29       0.00057645       0.00087569      -0.00136537 
Cu      9.68194457      14.59442181       8.34543386       29      -0.00050612       0.00105015      -0.00125943 
Cu     14.84929296       8.59974309       8.52900248       29      -0.00017184      -0.00047342      -0.00061660 
Cu     12.06930936      13.81544704       8.55761035       29       0.00121937      -0.00121047      -0.00003925 
Cu      5.08196491       7.29342629       8.54050712       29       0.00002724       0.00136949       0.00123025 
Cu     12.97657185       7.02353521       8.06588025       29      -0.00098469      -0.00023271       0.00017214 
Cu     10.86402650       9.84011699       7.94190235       29      -0.00116685       0.00016719       0.00119631 
Cu     12.73718273      11.44416603       8.28183723       29      -0.00041763      -0.00091471       0.00080380 
Cu     13.59861252       4.65524354       8.12738993       29       0.00235121      -0.00167737      -0.00028743 
Cu     11.11109050       7.72785515       6.58785287       29      -0.00095535      -0.00064076      -0.00100765 
Cu      9.02028282       8.29804994       7.64808445       29       0.00114764      -0.00024156      -0.00009543 
Cu      4.40421504      12.00020871       7.57574044       29       0.00066887       0.00030828      -0.00024968 
Cu      9.57857559       5.93818064       7.57920401       29      -0.00126219       0.00092089      -0.00114533 
Cu     10.17589300       3.55956939       7.57886032       29      -0.00094535      -0.00081415      -0.00113156 
Cu      5.11090418       9.58499135       7.40466751       29      -0.00222684       0.00041012       0.00463779 
Cu      7.18646715       6.73722284       7.34853205       29      -0.00013277      -0.00164205      -0.00037898 
Cu      3.13697398       8.05205395       7.18342874       29       0.00004919       0.00075845       0.00003532 
Cu      5.30224901       5.15439735       7.10537361       29      -0.00061564      -0.00069076      -0.00099178 
Cu     10.24785349      12.19726911       8.14809999       29      -0.00913332       0.00096908       0.00351765 
Cu      7.70720095       4.28500056       7.31106260       29      -0.00000428      -0.00018637      -0.00081427 
Cu     10.24866301      11.01291105       3.84812440       29       0.00073911       0.00036907       0.00025401 
Cu      9.48058443       8.57398706       3.52963821       29      -0.00121169       0.00072156       0.00030161 
Cu      7.77834713      10.40003134       4.27455329       29       0.00128233       0.00044478       0.00037887 
Cu      6.99255741       7.93118147       4.02519970       29       0.00006354       0.00023587      -0.00047767 
Cu      9.02938782      12.09147994       5.80665049       29       0.00015921       0.00023829      -0.00075973 
Cu      8.70214415       6.13965375       3.35356808       29      -0.00132709       0.00143700      -0.00041567 
Cu     11.77947814       9.08642839       4.63590260       29      -0.00015180       0.00244239       0.00012493 
Cu     10.99671559       6.61823869       4.38667637       29      -0.00009943       0.00039914      -0.00029160 
Cu      5.31881482       9.74184832       4.83763327       29      -0.00012273       0.00001449       0.00051335 
Cu      3.24125190      10.33041972       6.06649418       29      -0.00168157      -0.00057178       0.00038516 
Cu      6.51039602      11.45392820       6.30109357       29      -0.00116570      -0.00115116       0.00101313 
Cu      3.20193996       5.75861174       8.32705945       29      -0.00088282      -0.00085595       0.00080381 
Cu      9.63184472       9.65075927       5.75364285       29       0.00046555       0.00072951       0.00007272 
Cu      7.80654971      13.05373861       7.83518559       29      -0.00024778      -0.00087026       0.00068207 
Cu     11.52631062      11.28001196       6.03101538       29      -0.00004537      -0.00006361       0.00101891 
Cu      6.98026502       5.61068996       5.17194538       29      -0.00038505      -0.00093573      -0.00040653 
Cu      8.86243509       7.22296260       5.50986328       29       0.00046865       0.00067317       0.00139356 
Cu      9.43572306       4.79330861       5.40769511       29       0.00004759      -0.00043695      -0.00081523 
Cu     13.05940374       9.32597432       6.88889799       29       0.00092497      -0.00112107       0.00010815 
Cu     13.24632417       7.14316878       5.56780794       29       0.00065385       0.00011309      -0.00132769 
Cu     11.74428774       5.30320058       6.51405269       29      -0.00106136       0.00073893      -0.00003794 
Cu      7.19645470       9.00976006       6.23211960       29       0.00181710       0.00164194      -0.00365857 
Cu      5.24259181       7.43963529       5.93086933       29       0.00091153      -0.00064126      -0.00117465 
Cu      8.40371244      10.64291611       7.72021929       29       0.00818325      -0.00221372      -0.00359798 
Cu     10.88925953      13.67855546       6.33052869       29       0.00075691       0.00050573      -0.00096275 
