101
Lattice="17.3177640426 0.0 0.0 0.0 17.3177640426 0.0 0.0 0.0 17.3177640426" Properties=species:S:1:pos:R:3:Z:I:1:forces:R:3 energy=-308.678942243 pbc="F F F"
Cu      9.61777505       9.80647897      14.37460689       29       0.00166863      -0.00329329      -0.00276936 
Cu      8.50676267       7.57846039      13.93386134       29       0.00198779      -0.00130454       0.00197598 
Cu      7.39325404       5.35869117      13.40642054       29       0.00291760      -0.00028589       0.00045075 
Cu     11.01536707       7.91119925      13.46168940       29      -0.00229267       0.00100780      -0.00028484 
Cu      9.90849707       5.66907371      13.00277311       29       0.00153332       0.00179272      -0.00314185 
Cu      7.30127177       9.78184983      13.38391885       29      -0.00295306      -0.00384923       0.00079459 
Cu      6.16156034       7.53296977      12.93532314       29      -0.00209949       0.00166177       0.00013508 
Cu     12.38773742       6.01936346      12.45966870       29      -0.00152625       0.00351939      -0.00325830 
Cu      5.08935872       5.31020242      12.36532233       29       0.00108786       0.00128709      -0.00275734 
Cu     11.33193354      10.33571017      12.60151288       29      -0.00359460      -0.00132246       0.00132496 
Cu      9.04025465      11.46476563      12.55341865       29      -0.00294605       0.00108411       0.00077210 
Cu      4.97170099       9.72584167      12.32323235       29       0.00087983       0.00066081      -0.00011676 
Cu      9.28823885       9.00579697      12.04866901       29       0.00171012       0.00065621       0.00092351 
Cu      3.86297309       7.47568206      11.82624725       29      -0.00015052      -0.00043593       0.00106763 
Cu      8.18141874       6.76146980      11.57394506       29      -0.00271522      -0.00214336       0.00051680 
Cu     12.75181971       8.43413750      11.68750711       29       0.00221663       0.00119664      -0.00252224 
Cu      7.07221460       4.47897939      11.08846783       29      -0.00151903      -0.00026975      -0.00096081 
Cu     10.68187526       7.09451330      11.09409071       29       0.00193340      -0.00180882       0.00012580 
Cu      6.69350680      11.45105514      11.53237772       29       0.00038864      -0.00244258       0.00163978 
Cu      9.58705989       4.75886125      10.66631191       29      -0.00138798      -0.00045525      -0.00287659 
Cu      2.70447326       9.64089515      11.22159205       29       0.00262023      -0.00166633      -0.00184545 
Cu      6.97497817       8.97283418      11.04740319       29      -0.00185864       0.00203858       0.00463633 
Cu     14.13083705       6.55116738      10.72253988       29       0.00505436       0.00401207       0.00353077 
Cu      5.88667381       6.71403504      10.53211118       29      -0.00361418      -0.00286789       0.00223135 
Cu     12.07272130       5.13966200      10.13099395       29       0.00294724      -0.00044786      -0.00119742 
Cu      3.74115386       5.53531931      10.21598483       29       0.00247023      -0.00213904       0.00359052 
Cu     13.02136121      10.87466134      10.76729842       29      -0.00310903       0.00217037       0.00253448 
Cu     10.76337472      12.00604049      10.73338038       29       0.00140316      -0.00019766      -0.00185054 
Cu     11.01078304       9.50201274      10.25535226       29      -0.00261339       0.00056463       0.00127458 
Cu      8.45297981      13.09124148      10.65059972       29       0.00370599       0.00291427       0.00290385 
Cu      4.38810303      11.35013208      10.43085226       29      -0.00205694       0.00164381       0.00034630 
Cu      8.71190567      10.64731013      10.22210861       29       0.00218550       0.00009593      -0.00032496 
Cu      4.70572219       8.89444389       9.95833354       29      -0.00160277      -0.00139280       0.00127521 
Cu      8.95520591       8.20233178       9.73751934       29      -0.00118053      -0.00112721      -0.00362489 
Cu     14.43890626       9.01748127       9.92436026       29       0.00249148      -0.00107697      -0.00224658 
Cu      2.56439926       7.71644583       9.60917992       29      -0.00142997       0.00073828       0.00069380 
Cu      7.86079048       5.93611136       9.25102080       29      -0.00137014       0.00226339       0.00009231 
Cu      8.09131675       3.51254860       8.90239471       29      -0.00164539       0.00081560       0.00412721 
Cu     12.41311947       7.53230284       9.27863606       29       0.00201860       0.00127624      -0.00031413 
Cu      5.73663586       4.67481926       8.91347032       29      -0.00294422       0.00310753      -0.00065397 
Cu     10.30289467       6.26343709       8.78984231       29       0.00408532       0.00002462       0.00350958 
Cu     10.60998587       3.83865896       8.40784520       29      -0.00084188      -0.00227938       0.00087754 
Cu      6.13015362      13.03409232       9.59110121       29       0.00078214      -0.00165092      -0.00191683 
Cu      6.39465068      10.58922771       9.16389799       29      -0.00205451       0.00051269      -0.00206628 
Cu      6.67577581       8.13842588       8.69761663       29       0.00139202       0.00473823       0.00564728 
Cu     14.68625561      11.29503167       8.89163157       29       0.00120720      -0.00022348      -0.00322574 
Cu      2.90468040      10.12873579       8.75087573       29      -0.00132247      -0.00223374      -0.00020871 
Cu      4.54027698       6.92786406       8.32220391       29      -0.00031885      -0.00596388      -0.00407361 
Cu     12.45627135      12.43432557       8.84448677       29       0.00163021      -0.00444410      -0.00021831 
Cu     14.65905997       7.22364585       8.31964358       29       0.00277892       0.00846125       0.00283734 
Cu     12.67164053       9.92408713       8.41484524       29       0.00062880       0.00421034      -0.00557552 
Cu     10.16877682      13.56685463       8.79771847       29       0.00895510      -0.00175703      -0.00120437 
Cu     10.42536100      11.10300702       8.37642101       29      -0.00121413       0.00360336      -0.00058182 
Cu     14.20147832       4.88778984       8.84475226       29      -0.00064117       0.00106933      -0.00177846 
Cu      7.88308065      14.63440173       8.73294558       29       0.00137311       0.00038487       0.00120911 
Cu     10.65902059       8.61885376       7.92038450       29      -0.00144495      -0.00284240       0.00418729 
Cu      8.13609089      12.20099316       8.31689659       29       0.00025906      -0.00333016      -0.00228933 
Cu      8.39084445       9.78044507       7.89079741       29       0.00098906      -0.00279015      -0.00353426 
Cu      8.61760870       7.41588886       7.47512804       29      -0.00165465      -0.00061089      -0.00318509 
Cu      8.86268793       5.06151725       7.09187037       29      -0.00245215      -0.00025905      -0.00201970 
Cu      4.60928236      11.84497094       7.91972635       29      -0.00191667      -0.00088378      -0.00073940 
Cu      9.09119837       2.68336231       6.70049394       29      -0.00385788      -0.00049929       0.00264952 
Cu      6.56556943       6.20417159       7.08069203       29      -0.00116205      -0.00246340       0.00368560 
Cu      4.92909839       9.35267605       7.47066057       29      -0.00188531       0.00169884      -0.00074432 
Cu      6.76504735       3.77599426       6.69102400       29      -0.00322017       0.00309604      -0.00265840 
Cu     14.75336478       9.42516371       7.21675630       29       0.00214729       0.00185121      -0.00162220 
Cu      2.77651608       8.20788150       7.11700495       29      -0.00424868      -0.00028284       0.00341237 
Cu      4.47262537       5.00407251       6.71332360       29      -0.00074218      -0.00119983      -0.00134374 
Cu     14.43459127       5.82494348       6.39872021       29      -0.00026273       0.00511957       0.00134675 
Cu     12.78174271       7.92155758       6.71501488       29       0.00312843      -0.00396249      -0.00199470 
Cu     12.28793369       5.57282424       7.53883122       29       0.00082949      -0.00844033      -0.00099435 
Cu     10.21231915       5.97639105       3.90244179       29       0.00549232      -0.00103462       0.00351193 
Cu      8.99613739       8.17994557       3.37258542       29      -0.00235783       0.00184625      -0.00259777 
Cu      7.61008537      10.16296439       4.37634692       29       0.00294504      -0.00133025      -0.00271313 
Cu      7.40465864      12.62352094       4.89593240       29       0.00252840      -0.00154760      -0.00203847 
Cu      7.85540280       5.91465349       2.94315715       29      -0.00101219       0.00250097      -0.00434685 
Cu      6.48147151       7.83934798       3.87387889       29      -0.00111044       0.00137615       0.00103453 
Cu      5.13647295       9.77040605       4.93401994       29       0.00053521      -0.00072734      -0.00049252 
Cu     11.40791503       8.30024809       4.43138217       29       0.00362199      -0.00194505       0.00236548 
Cu     10.12203595      10.44975595       3.93790574       29       0.00119286       0.00176442       0.00284139 
Cu      9.91805437      12.89143527       4.43520219       29       0.00051154       0.00187027      -0.00067554 
Cu      6.13653109       5.41549331       4.77580045       29       0.00161408       0.00081291      -0.00339611 
Cu      4.74986187       7.37655260       5.77064010       29      -0.00210625       0.00118376      -0.00271182 
Cu     12.17774806      11.74285554       4.49518142       29       0.00130281      -0.00373503      -0.00084703 
Cu     11.21000004      12.71989964       6.61952706       29      -0.00035933      -0.00209333      -0.00001811 
Cu     10.85493057       4.32179621       5.81541581       29       0.00037139       0.00123112       0.00344762 
Cu     12.52239131       6.08072967       4.92488810       29      -0.00058282       0.00151308       0.00201304 
Cu     10.57654044       6.76494557       6.23000214       29      -0.00058196       0.00043565       0.00207071 
Cu      9.34396107       8.90395862       5.70026883       29      -0.00324365      -0.00040790       0.00170072 
Cu      4.92370299      12.21195295       5.41981354       29      -0.00110439      -0.00313036       0.00232301 
Cu      6.64996695      10.99845418       6.64007022       29      -0.00107310       0.00120781       0.00053515 
Cu      6.38943591      13.46537342       7.06894073       29       0.00080676      -0.00161914      -0.00009372 
Cu      8.46779014       4.24588768       4.77976734       29      -0.00309144       0.00178064       0.00013064 
Cu      3.18457616      10.57370304       6.26361012       29       0.00106091       0.00057304       0.00095178 
Cu     13.46523884      11.55129719       6.67859559       29      -0.00250881      -0.00288561       0.00365713 
Cu      8.23563327       6.67104364       5.21880751       29      -0.00036384      -0.00368691      -0.00050389 
Cu      6.90052099       8.56953840       6.19114563       29      -0.00317264       0.00220491      -0.00172379 
Cu     13.48917851       9.61453746       5.03000768       29      -0.00162062       0.00161271       0.00303941 
Cu     11.40692437      10.18165728       6.20812352       29       0.00239023       0.00538435       0.00076865 
Cu      9.14510517      11.33490690       6.14471329       29       0.00013532       0.00408166      -0.00111961 
Cu      8.89883735      13.80652599       6.57338697       29       0.00222418      -0.00187011      -0.00071773 
