101
Lattice="16.9942917591 0.0 0.0 0.0 16.9942917591 0.0 0.0 0.0 16.9942917591" Properties=species:S:1:pos:R:3:Z:I:1:forces:R:3 energy=-308.649024518 pbc="F F F"
Cu      8.32498270       8.66545229      14.70655176       29       0.00015612      -0.00044183       0.00043878 
Cu     10.14060439      10.30505624      14.05534811       29       0.00099174      -0.00089053      -0.00032715 
Cu      6.93824061       6.63400742      13.97234350       29       0.00039302      -0.00255225      -0.00082351 
Cu      5.94315301       8.97234613      13.86993571       29      -0.00125306       0.00028051       0.00320164 
Cu     10.22309404       7.93604553      13.25070405       29      -0.00058286       0.00090559      -0.00118466 
Cu      7.74943658      10.67733620      13.26890247       29       0.00391996      -0.00192119       0.00157946 
Cu      5.63060203       4.64389913      13.08907715       29      -0.00384857      -0.00112284       0.00094627 
Cu      4.58298038       6.93713185      13.06418525       29      -0.00088569       0.00088153      -0.00362145 
Cu      3.59976182       9.25806083      12.95452512       29       0.00253459       0.00058449       0.00204245 
Cu      9.59673086      12.29517937      12.56863690       29       0.00097908      -0.00003750      -0.00103303 
Cu      8.85824535       5.88750036      12.51105277       29      -0.00029767       0.00270820      -0.00144522 
Cu     11.79386375      11.05811409      12.23611039       29       0.00175344      -0.00151465       0.00214176 
Cu      7.82725255       8.29568583      12.34886371       29       0.00337960      -0.00173602      -0.00107735 
Cu      5.36417371      10.95781750      12.35226932       29      -0.00079070       0.00162241       0.00034181 
Cu     11.39035892       6.10346079      11.82714832       29      -0.00038612       0.00011719      -0.00226735 
Cu      9.62952504       9.92958169      11.70566590       29       0.00121078       0.00108318       0.00264480 
Cu      7.19668629      12.62984882      11.70055485       29       0.00039236      -0.00130725      -0.00106236 
Cu     11.89077087       8.66001038      11.43578715       29       0.00071751      -0.00053402       0.00073412 
Cu      7.50494877       3.91204034      11.63079370       29      -0.00080004      -0.00053676       0.00026463 
Cu      6.48110404       6.27898918      11.52834627       29      -0.00359864      -0.00150913       0.00264364 
Cu      5.46030275       8.60832514      11.45291915       29      -0.00272589      -0.00182139       0.00064403 
Cu      9.03547272      14.21627163      11.01903715       29       0.00136582      -0.00189809       0.00242075 
Cu     10.01841433       4.06368236      11.00460912       29      -0.00080171       0.00160542       0.00013706 
Cu      9.68370432       7.58976865      10.86428147       29       0.00237192      -0.00186179       0.00046836 
Cu      4.17625111       5.34280253      11.12963329       29       0.00104607      -0.00083489       0.00008922 
Cu     11.22334547      12.99503669      10.68742211       29       0.00034024       0.00142146       0.00116107 
Cu      7.23026816      10.29061220      10.84595534       29       0.00256314       0.00215427      -0.00245054 
Cu      3.18140012       7.67963934      11.02664999       29       0.00096560      -0.00106869       0.00042037 
Cu     13.37696945      11.69869181      10.31459649       29       0.00006338       0.00392205       0.00036327 
Cu     12.47225510       4.33562602      10.31768220       29      -0.00260132       0.00095105       0.00098876 
Cu      3.67289739      10.15796206      10.59342469       29      -0.00062951       0.00042241       0.00248014 
Cu      9.05638318      11.88823685      10.17567668       29      -0.00078478       0.00076732       0.00037652 
Cu     13.02293681       6.80520650       9.94416234       29      -0.00143157       0.00023610       0.00148684 
Cu      8.33564905       5.59810667      10.05931924       29       0.00391370       0.00048624      -0.00111057 
Cu     11.24522311      10.62461489       9.84048981       29       0.00047852       0.00065419      -0.00117622 
Cu      7.31309796       7.95401402       9.96572521       29      -0.00149772       0.00174010       0.00150188 
Cu      5.46315105      11.87549090       9.95920657       29       0.00098266       0.00003788       0.00006327 
Cu     13.45605019       9.33009556       9.51018418       29       0.00127705       0.00060190       0.00001259 
Cu     10.78648547       5.81948265       9.41646778       29      -0.00243566       0.00149140       0.00297554 
Cu      6.05652032       4.56276726       9.64018175       29      -0.00125408      -0.00227254      -0.00036640 
Cu      9.08820975       9.56763961       9.33654563       29       0.00081850      -0.00039213      -0.00415755 
Cu      5.07153430       7.00824830       9.51864399       29      -0.00018103       0.00215735       0.00150943 
Cu      7.33624742      13.49000573       9.28853917       29      -0.00116368      -0.00121225      -0.00064643 
Cu      8.29278996       3.27334899       9.22475049       29      -0.00025319       0.00010659       0.00272878 
Cu     11.27351546       8.27414583       9.02980543       29      -0.00372274      -0.00125494       0.00059435 
Cu      5.54421031       9.48928664       9.09231692       29       0.00071332      -0.00170649      -0.00171795 
Cu      9.81239857      13.74698048       8.66427168       29       0.00064597      -0.00050011      -0.00233451 
Cu      2.85200283       6.09784203       9.05883372       29      -0.00077818      -0.00172280       0.00061256 
Cu     10.80378329       3.49531959       8.56835303       29      -0.00086360      -0.00121413      -0.00004312 
Cu      9.11412970       7.29269604       8.52289355       29       0.00139667       0.00273529      -0.00418036 
Cu     12.02527102      12.51109140       8.31349344       29       0.00008653      -0.00078952      -0.00163306 
Cu      7.36488904      11.14304517       8.44474156       29      -0.00090106      -0.00120081       0.00358750 
Cu      3.25066564       8.56366666       8.62640119       29      -0.00138849      -0.00062944       0.00074051 
Cu     14.14228893      11.16930538       7.96209401       29      -0.00038230       0.00125106      -0.00235197 
Cu     12.67274803       5.21256818       7.91570108       29       0.00038145       0.00252086      -0.00089086 
Cu      3.82026814      11.01949171       8.18401896       29      -0.00071696       0.00143858      -0.00162814 
Cu      6.94717488       6.30197071       8.08078369       29      -0.00229345       0.00017726      -0.00432857 
Cu      9.83029935      11.39762284       7.82746564       29       0.00118242      -0.00250941       0.00172435 
Cu     13.18313794       7.75222191       7.50828013       29      -0.00003050      -0.00255723       0.00059840 
Cu      9.09198125       5.04199260       7.67059760       29       0.00031847      -0.00062942      -0.00090201 
Cu     12.00484559      10.08411805       7.50108084       29       0.00157736       0.00041083       0.00054000 
Cu      7.42243413       8.77534193       7.60922369       29      -0.00011390      -0.00167997       0.00125991 
Cu      5.64852268      12.67744881       7.53406425       29       0.00121580       0.00208343      -0.00063445 
Cu      4.71519144       5.32549062       7.58763951       29      -0.00013725      -0.00084430       0.00081524 
Cu     10.93083049       6.72518748       7.04007746       29       0.00266127      -0.00140214       0.00074200 
Cu      9.85753189       9.02385006       7.02309972       29      -0.00077576       0.00028549       0.00435590 
Cu      6.85884667       3.99334695       7.18018504       29       0.00078953       0.00234436      -0.00110078 
Cu      5.19073175       7.84989822       7.14461794       29       0.00099232      -0.00115854      -0.00151572 
Cu      8.10704199      13.00614696       6.89537240       29       0.00134364       0.00118584      -0.00322272 
Cu      9.06554382       2.77802013       6.80981561       29       0.00047904       0.00235991       0.00033699 
Cu      5.70271114      10.32539558       6.70749410       29      -0.00081982      -0.00084861      -0.00069456 
Cu     10.58995421      13.18148874       6.28958854       29      -0.00032416      -0.00067380      -0.00330002 
Cu      2.97852208       6.93450672       6.66693272       29      -0.00093308      -0.00195452       0.00133556 
Cu     10.94645990       4.42297582       6.13794543       29      -0.00176520      -0.00554588       0.00812483 
Cu     13.86659773       9.62958023       5.95033682       29      -0.00063812       0.00071031       0.00065739 
Cu     12.76695473      11.89911812       5.95248441       29      -0.00231523      -0.00069089       0.00224764 
Cu      6.22685932       8.33014992       2.88025140       29      -0.00097881       0.00276489      -0.00099134 
Cu      7.53676679      10.40270021       3.65034765       29       0.00034738       0.00077820      -0.00034127 
Cu      5.68412310       5.90925101       3.34475272       29      -0.00054253       0.00160892      -0.00364973 
Cu      8.67811130       8.60749799       2.28774000       29       0.00020345       0.00202576      -0.00166664 
Cu      5.09344591      10.10862496       4.32784714       29       0.00015814      -0.00022883      -0.00013243 
Cu     10.02006194      10.61423231       3.09814085       29      -0.00151412       0.00120657      -0.00099087 
Cu     11.09186797       8.33109822       3.06734301       29       0.00185495      -0.00007970      -0.00088975 
Cu      8.90102729      12.38477061       4.54686952       29      -0.00131782      -0.00271036       0.00039057 
Cu     12.42354839      10.30980122       3.96167915       29       0.00085864      -0.00058704      -0.00041222 
Cu      7.98054539       6.73420591       3.78205711       29       0.00178583      -0.00083629      -0.00080081 
Cu      6.19256743       3.89230432       4.77312550       29       0.00321330      -0.00392078      -0.00076995 
Cu      4.52447263       7.66770678       4.71865488       29      -0.00161811       0.00035785       0.00019999 
Cu      6.82675643       8.55299258       5.23574494       29      -0.00092833      -0.00130843      -0.00152876 
Cu     11.71430116       8.48326103       5.47354161       29      -0.00049745      -0.00174008      -0.00018650 
Cu      6.43032343      12.13606288       5.16416095       29       0.00012911      -0.00252785       0.00036615 
Cu     10.38906181       6.42896260       4.58344605       29       0.00354362       0.00455490      -0.00759554 
Cu      8.50897952       4.70479288       5.24760784       29      -0.00080360      -0.00026564       0.00039081 
Cu      8.57190406       7.00212841       6.18232518       29       0.00175805       0.00193450       0.00313985 
Cu      4.09828557       5.23181360       5.18706059       29      -0.00228670       0.00133496      -0.00303954 
Cu      6.33795181       6.12859661       5.71532332       29       0.00209274       0.00393618       0.00606002 
Cu      9.26982188       8.80657216       4.65248108       29      -0.00203987       0.00148181      -0.00129216 
Cu     10.59475424      10.81538149       5.49510578       29      -0.00012941       0.00157148       0.00045433 
Cu      3.46492283       9.40661720       6.22470913       29      -0.00260791      -0.00012756       0.00089464 
Cu     12.75712203       6.19226700       5.51756002       29      -0.00003687       0.00281732       0.00386457 
Cu      8.14558977      10.59707499       6.08482471       29       0.00006097      -0.00150416      -0.00332518 
