101
Lattice="17.3551271707 0.0 0.0 0.0 17.3551271707 0.0 0.0 0.0 17.3551271707" Properties=species:S:1:pos:R:3:Z:I:1:forces:R:3 energy=-308.635418709 pbc="F F F"
Cu      6.92463904      10.44287157      13.05965567       29       0.00076595       0.00037243       0.00019803 
Cu      8.91810730       8.89751562      13.51431996       29      -0.00190225       0.00056708       0.00000678 
Cu      4.50150219      10.95954346      12.97203158       29      -0.00149459       0.00066638      -0.00106513 
Cu      6.47074873       7.94061461      13.19975796       29       0.00014402       0.00029021       0.00210686 
Cu     10.88479863       7.31261673      13.81702753       29       0.00001335      -0.00027923      -0.00046947 
Cu     10.50412205       5.16121550      12.45894869       29       0.00001547      -0.00136195       0.00038890 
Cu      4.03434944       8.48986961      13.13666301       29      -0.00117830       0.00049978       0.00118128 
Cu      8.47728751       6.33548481      13.58600683       29      -0.00080806       0.00047586       0.00004029 
Cu      6.08039731       5.43869548      13.23628360       29       0.00010789       0.00037390      -0.00044769 
Cu      8.35340804      12.44150968      13.49500779       29       0.00082224       0.00063530       0.00014133 
Cu     10.36627631      10.91263026      13.95211614       29      -0.00048672       0.00112302       0.00168213 
Cu     12.29608014       9.30101181      14.28315868       29      -0.00027342       0.00022459      -0.00039934 
Cu      4.48746713      11.68906503      10.56465063       29       0.00056355      -0.00095839      -0.00043323 
Cu      6.15399979      12.72372085      12.26244122       29      -0.00125791      -0.00024684      -0.00074976 
Cu     12.18934268       6.98657194      11.64362752       29       0.00109208      -0.00095370      -0.00134386 
Cu      7.75161148       8.88638672      11.29936559       29       0.00064501       0.00061272       0.00312537 
Cu      9.32017989       5.19117245      10.29279103       29      -0.00073656      -0.00048079      -0.00004157 
Cu      4.82459623       6.79483090      11.48295047       29       0.00103947       0.00023223       0.00146226 
Cu     11.10018566       9.28265682      12.17960847       29      -0.00068445      -0.00219068      -0.00065343 
Cu      5.35088182       9.36444661      11.28521662       29      -0.00256206       0.00103830       0.00039672 
Cu      8.06458679       4.21240042      12.16679631       29      -0.00071354       0.00067695      -0.00179630 
Cu      9.68804011       7.32689003      11.67200958       29       0.00012088      -0.00011800      -0.00104119 
Cu     13.59794672       9.02371563      12.12233465       29      -0.00157000       0.00112645       0.00004356 
Cu     10.57774268      12.85406029      12.32916026       29       0.00061049       0.00192603      -0.00068448 
Cu      7.31445317       6.41351115      11.38599003       29      -0.00123681      -0.00102031       0.00079385 
Cu      9.13397967      10.87172440      11.79152234       29       0.00130057       0.00807949       0.00044490 
Cu      5.85795576       4.50933264      10.85682139       29       0.00093657       0.00005383      -0.00060613 
Cu     12.56767535      11.26657465      12.73481496       29      -0.00005639      -0.00394893      -0.00060040 
Cu      2.93280567       9.86285482      11.32858280       29       0.00043124       0.00078371       0.00073187 
Cu     12.14443750      10.60153159       4.00156684       29       0.00045420       0.00180320      -0.00208659 
Cu      9.81411875       9.71250837       3.62437262       29       0.00094361       0.00014474       0.00054082 
Cu      7.44722640       8.78361291       3.31276893       29       0.00275773       0.00082254      -0.00062919 
Cu      5.12199087       7.83827917       3.07196849       29      -0.00118219      -0.00112009      -0.00093689 
Cu     11.78941632       8.10222265       4.02881413       29      -0.00047151      -0.00116559       0.00017616 
Cu      9.44064854       7.18590427       3.64586331       29       0.00110881       0.00068887       0.00238036 
Cu      7.07632076       6.26391025       3.38210187       29      -0.00028857       0.00054889       0.00038308 
Cu     11.38208703       5.60070403       4.12600612       29      -0.00084157       0.00120290      -0.00008191 
Cu      9.04823458       4.69571314       3.79682767       29       0.00063329      -0.00079065      -0.00001377 
Cu     10.18481781      11.79468533       5.07051902       29       0.00193484       0.00019391      -0.00052911 
Cu      7.81184124      10.90438024       4.70246312       29       0.00005129       0.00094749      -0.00132154 
Cu      5.45972801       9.93420051       4.43863455       29       0.00060062      -0.00022650       0.00254651 
Cu     13.38399581       9.22151711       5.72006760       29       0.00165872      -0.00194046      -0.00026915 
Cu      4.80691781       5.84214619       4.56551471       29       0.00016648       0.00021885      -0.00183851 
Cu     13.02753375       6.70466667       5.75871311       29       0.00068697      -0.00032767      -0.00133835 
Cu     10.91890827       9.52774295       5.87037464       29      -0.00074428      -0.00120234      -0.00003394 
Cu     12.39409785      11.51327337       6.33732804       29       0.00161780       0.00108149      -0.00094990 
Cu      8.58993560       8.62882889       5.51443374       29       0.00077748       0.00055261      -0.00217048 
Cu      6.79054307       4.26283236       4.86783667       29      -0.00109994      -0.00119726       0.00037682 
Cu      6.27126464       7.68538463       5.26524736       29      -0.00196863       0.00205730       0.00113837 
Cu      8.18809008      12.95155595       6.19838153       29       0.00083206       0.00017347       0.00209478 
Cu      5.82515821      12.02224325       5.88091295       29       0.00012591      -0.00077557      -0.00134142 
Cu      3.81733962       8.15084171       5.21284501       29      -0.00067852      -0.00020079       0.00118890 
Cu     10.55467657       7.00726525       5.93414305       29      -0.00104554      -0.00114550      -0.00215363 
Cu      8.22993817       6.10038799       5.62189004       29       0.00214294       0.00188545       0.00144739 
Cu     10.19254549       4.45785409       6.00971229       29       0.00065434       0.00121554      -0.00039550 
Cu      8.95862411      10.70702398       6.95268418       29      -0.00126641      -0.00012064       0.00068905 
Cu     10.41751622      12.72542874       7.44427835       29       0.00089092       0.00112872      -0.00069588 
Cu      6.61005399       9.77364440       6.63787723       29      -0.00127589      -0.00138789      -0.00211745 
Cu     14.55275446       7.82732084       7.49464330       29       0.00042445       0.00057041      -0.00033061 
Cu      6.21728842      14.03894637       7.34826186       29       0.00126006      -0.00053781       0.00086186 
Cu      4.13956810      10.25543068       6.62637524       29      -0.00065256      -0.00117242      -0.00022033 
Cu     12.13695697       8.12319308       7.61238724       29      -0.00119588      -0.00049554       0.00075705 
Cu     13.64958978      10.12743442       8.09060857       29       0.00010265       0.00065095       0.00096641 
Cu      5.92566732       5.61657401       6.77970385       29      -0.00053979      -0.00174811       0.00098778 
Cu      9.69882787       8.44416154       7.72971371       29       0.00087951       0.00051758       0.00076801 
Cu      3.48741040       6.17435582       6.72445359       29      -0.00076152      -0.00025949      -0.00042358 
Cu     11.84124398       5.53789521       7.66130615       29      -0.00097878       0.00087980      -0.00029967 
Cu     11.15949936      10.42414645       8.20700997       29       0.00047384      -0.00096743       0.00110896 
Cu      7.39841857       7.50937360       7.43626496       29      -0.00089379       0.00048025       0.00286877 
Cu     12.60585871      12.38416376       8.73534047       29       0.00029075       0.00044997      -0.00058643 
Cu      7.94258946       4.00283299       7.13092451       29       0.00149952      -0.00047337       0.00018934 
Cu      6.98715906      11.80300075       8.09547600       29       0.00235933      -0.00063428      -0.00064383 
Cu      8.40239425      13.82638564       8.59286763       29      -0.00112357      -0.00024422       0.00085208 
Cu      4.98897876       7.97606895       7.43514911       29      -0.00157221      -0.00019597      -0.00097105 
Cu      9.35751523       5.91487560       7.83026781       29       0.00215392      -0.00012787      -0.00123468 
Cu      4.54856992      12.30079825       8.10213389       29      -0.00162448      -0.00000535      -0.00103396 
Cu      2.58399264       8.44005933       7.43333020       29       0.00080614       0.00069416      -0.00084156 
Cu      7.74259795       9.56664754       8.84485700       29       0.00177871      -0.00005533      -0.00129302 
Cu      9.16958375      11.57419846       9.33372764       29       0.00061816      -0.00017490       0.00016894 
Cu     10.15889360       3.70919390       8.48561928       29       0.00060455       0.00160474       0.00008919 
Cu     10.61080756      13.53924426       9.86293812       29       0.00096682       0.00027089      -0.00061912 
Cu     13.36902206       6.68871611       9.37846172       29      -0.00121230      -0.00065618      -0.00069269 
Cu      5.32326241      10.02949287       8.85956669       29      -0.00004186      -0.00030783       0.00142746 
Cu     14.77113453       8.69913054       9.86371543       29      -0.00054245       0.00064427      -0.00104908 
Cu      2.92466307      10.48482912       8.88485831       29      -0.00084348       0.00003977      -0.00033351 
Cu     10.91782238       7.01760635       9.47789712       29      -0.00053573      -0.00184236      -0.00149948 
Cu      6.16982334      13.42731442       9.79978995       29      -0.00019347      -0.00109096       0.00011117 
Cu     12.35040978       8.98535927       9.96718169       29       0.00149937       0.00032154       0.00049955 
Cu      7.08428661       5.48448505       8.95929584       29      -0.00042475       0.00016671      -0.00056420 
Cu     13.81091367      10.96551630      10.49820803       29      -0.00158747      -0.00130219       0.00015151 
Cu      8.52135865       7.36223890       9.55891897       29       0.00125759      -0.00277598      -0.00037254 
Cu      9.90623936       9.28938767      10.04829961       29      -0.00146497       0.00146313      -0.00035174 
Cu      4.60836047       5.90912951       8.99956398       29      -0.00113039       0.00081054       0.00045268 
Cu     11.33388201      11.23792665      10.58004358       29       0.00161237       0.00484177      -0.00006701 
Cu      6.13527079       7.75615409       9.61419555       29      -0.00159610      -0.00037497       0.00013390 
Cu     12.77228313      13.18747756      11.11941001       29      -0.00099824       0.00009348      -0.00113351 
Cu     11.76965572       4.84474217      10.19221183       29       0.00113179      -0.00056612       0.00115904 
Cu      3.68311244       8.18810737       9.66182278       29       0.00076869      -0.00139402       0.00186365 
Cu      6.95205983      11.16181534      10.56005110       29       0.00011214       0.00124608       0.00287620 
Cu      7.88631069       3.31618080       9.69699236       29      -0.00015632      -0.00020052      -0.00046261 
Cu      8.37423891      13.20833193      11.07830763       29      -0.00135296      -0.00940729       0.00025947 
