101
Lattice="16.8935591769 0.0 0.0 0.0 16.8935591769 0.0 0.0 0.0 16.8935591769" Properties=species:S:1:pos:R:3:Z:I:1:forces:R:3 energy=-308.861814316 pbc="F F F"
Cu      8.38641684       8.84069062      14.34754244       29       0.00014684      -0.00039704       0.00132559 
Cu      9.88214836       6.87013843      13.89911211       29      -0.00002970       0.00110155      -0.00002778 
Cu      6.46033690       7.51746834      13.42701196       29       0.00201807       0.00244883       0.00235510 
Cu      6.97387349       9.86297901      12.54620451       29       0.00021240       0.00028658      -0.00095065 
Cu      5.03684375       8.58826342      11.59796451       29      -0.00112615      -0.00106826       0.00091008 
Cu     10.50777676       9.16204694      13.04696681       29       0.00196310      -0.00108064       0.00063516 
Cu      7.98642418       5.57202055      12.97341577       29       0.00164224       0.00146692      -0.00106159 
Cu     12.60751963       9.45563698      11.68433148       29      -0.00077234       0.00040445      -0.00023387 
Cu      4.49252362       6.30371186      12.45068187       29       0.00070629       0.00303522       0.00024782 
Cu     11.07366655       4.75874605      13.21191608       29       0.00277528       0.00226162       0.00076152 
Cu      8.08136757       4.59418634      10.65670120       29      -0.00100350      -0.00232741      -0.00040979 
Cu      6.87320051      12.36076975      12.72760161       29       0.00008623      -0.00086676      -0.00082570 
Cu      4.90604458      11.11325844      11.79247978       29      -0.00024508       0.00128856      -0.00213559 
Cu      8.94279297      11.13255806      13.46180108       29      -0.00212001       0.00008607      -0.00169871 
Cu      8.52275881       7.90250951      12.05313394       29      -0.00135256      -0.00305495      -0.00173060 
Cu      3.09707868       7.31113296      10.61592553       29       0.00138781      -0.00064118       0.00060514 
Cu      6.56874134       6.59397927      11.09931470       29      -0.00086084       0.00233632      -0.00059373 
Cu     11.08294879      11.45081076      12.13814680       29      -0.00111043      -0.00216297      -0.00074147 
Cu     11.96503505       7.11928595      12.55055618       29       0.00406854       0.00526183       0.00210184 
Cu      9.98216269       5.96174757      11.50363422       29       0.00061112      -0.00232155      -0.00076636 
Cu     12.37639799       5.14147064      11.08892740       29      -0.00078294       0.00057094      -0.00004862 
Cu      5.99826620       4.35864411      12.01315712       29      -0.00079569      -0.00667283      -0.00000329 
Cu      8.55807418       7.43385314       2.54601674       29       0.00010501      -0.00063401       0.00297461 
Cu      6.07350735      10.67931387       3.29179192       29       0.00063788      -0.00016283       0.00046760 
Cu      6.19990067       8.17715381       3.03397390       29       0.00159225       0.00229177       0.00024350 
Cu     10.52674651       8.69604070       3.46417785       29      -0.00026213       0.00016638       0.00121582 
Cu      8.01028430      11.98150792       4.22000259       29      -0.00014101       0.00209149      -0.00008739 
Cu      8.16286543       9.46843509       3.94926512       29      -0.00204468       0.00018818       0.00167808 
Cu     12.45520282       9.98124983       4.43502042       29      -0.00214634      -0.00122899      -0.00000412 
Cu      9.96772364      13.22806698       5.18035956       29      -0.00023511       0.00145157      -0.00029894 
Cu      9.47101555       5.31890243       3.52868057       29       0.00036876       0.00091104      -0.00097915 
Cu     10.11453570      10.74519818       4.89548600       29       0.00048234      -0.00057912       0.00034340 
Cu      4.56441140      11.72447441       4.99268813       29      -0.00046174       0.00344470       0.00084597 
Cu      7.09573875       5.99074938       3.98564482       29       0.00208633      -0.00184240       0.00058519 
Cu      4.61167227       9.23135672       4.72745126       29       0.00015882      -0.00228302       0.00032664 
Cu     11.43109746       6.59318268       4.43836296       29       0.00017825      -0.00019720       0.00114010 
Cu      6.51037607      13.02097274       5.90963754       29      -0.00003285       0.00024436       0.00251717 
Cu     12.06114589      12.01268821       5.86951450       29       0.00012633      -0.00012135       0.00095167 
Cu      4.74397950       6.72308799       4.52443599       29       0.00002588      -0.00236456       0.00058331 
Cu      9.06781713       7.29648739       4.97403013       29       0.00119615       0.00065249      -0.00260566 
Cu      6.60759010      10.50795530       5.71245694       29       0.00178429      -0.00121457       0.00125250 
Cu     13.36312188       7.86400853       5.41544116       29      -0.00032696      -0.00018157      -0.00190788 
Cu      8.45848000      14.27334138       6.88048678       29       0.00157074       0.00159404      -0.00026850 
Cu      6.70930551       8.01454609       5.45137513       29      -0.00085333       0.00293661       0.00300357 
Cu     11.04547831       8.58933074       5.93182396       29       0.00024458       0.00123050       0.00082237 
Cu      8.58527593      11.80166050       6.67117937       29      -0.00095734       0.00087229       0.00170164 
Cu      8.05814249       3.87524947       5.02581761       29      -0.00091864       0.00106128      -0.00028120 
Cu      3.12739559      10.30761145       6.49965624       29      -0.00055428      -0.00061380      -0.00161856 
Cu      8.69493921       9.31508069       6.41105870       29      -0.00178905       0.00319258       0.00228292 
Cu     11.38394617       4.10703784       7.88057123       29      -0.00012744       0.00280086      -0.00228118 
Cu     13.05364466       9.88492979       6.87120903       29      -0.00216406      -0.00177557      -0.00091112 
Cu      5.67201327       4.58652093       5.51609022       29      -0.00043155      -0.00041911      -0.00067958 
Cu     10.56932693      13.13053072       7.61585095       29       0.00011418      -0.00092437      -0.00009059 
Cu      3.21793012       7.78080366       6.24553942       29      -0.00199343       0.00003880      -0.00020259 
Cu     10.03528566       5.12586268       5.96445764       29       0.00250868      -0.00276249       0.00160115 
Cu      5.06347041      11.61629739       7.44298739       29       0.00168309       0.00042639       0.00203135 
Cu     10.68095371      10.61413965       7.37665999       29      -0.00122609      -0.00252228      -0.00126038 
Cu      7.64505029       5.85752869       6.45750996       29      -0.00164270      -0.00211699       0.00034600 
Cu      5.16539353       9.08443417       7.19275768       29       0.00130338       0.00259479      -0.00092523 
Cu     11.98330267       6.39240605       6.90176014       29      -0.00253359      -0.00224253       0.00121373 
Cu      7.01464809      12.89366286       8.38938650       29      -0.00116924      -0.00053627      -0.00148449 
Cu     12.64972789      11.89790698       8.33798215       29       0.00006538      -0.00053093      -0.00030703 
Cu      5.27751383       6.57965961       6.94861502       29       0.00323826      -0.00293320       0.00144224 
Cu      9.62404002       7.15636779       7.40624361       29       0.00407318       0.00047675       0.00080254 
Cu      7.14878355      10.38673227       8.15386912       29       0.00030415       0.00062676      -0.00135132 
Cu     13.91009887       7.69026838       7.86478367       29      -0.00075091       0.00009274      -0.00023554 
Cu      8.98259427      14.14732223       9.33945024       29      -0.00170924      -0.00301133      -0.00007960 
Cu      7.24981380       7.88756207       7.89363988       29      -0.00118095      -0.00005260       0.00134889 
Cu      9.43550737       2.88054977       6.88162493       29       0.00085066      -0.00001263      -0.00004208 
Cu     11.60603790       8.45149075       8.37015987       29      -0.00162044       0.00153121      -0.00062962 
Cu      2.99614577      11.28754063       8.81760959       29       0.00108636       0.00156344      -0.00053921 
Cu      9.13564242      11.68495011       9.11757104       29      -0.00037521      -0.00000225       0.00061561 
Cu      7.06813839       3.55612945       7.34804006       29      -0.00073304       0.00071287      -0.00069857 
Cu      3.04960651       8.79484405       8.54768374       29      -0.00078788      -0.00243659       0.00074993 
Cu      9.24259154       9.18828850       8.86203208       29      -0.00082529      -0.00041822      -0.00073454 
Cu     10.44621922       3.86813325      10.20074265       29       0.00015573      -0.00055128      -0.00033300 
Cu      4.71396727       4.31979126       7.83728645       29       0.00121063      -0.00110235       0.00077202 
Cu     13.56784918       9.72793185       9.33643848       29       0.00193622      -0.00024624       0.00155985 
Cu      3.20672560       6.29418784       8.29440724       29      -0.00056758      -0.00202636      -0.00121847 
Cu      4.92174281      12.57999019       9.78260143       29       0.00053924      -0.00049295      -0.00098873 
Cu     11.10730411      12.96685842      10.07660865       29      -0.00076086      -0.00013839      -0.00111617 
Cu      9.03979809       4.88215560       8.31447722       29      -0.00095457       0.00058845       0.00113873 
Cu      5.05504954      10.07651201       9.49742148       29       0.00248715       0.00068527      -0.00181628 
Cu     13.32961778       5.41519421       8.77897810       29       0.00047672       0.00170671      -0.00223801 
Cu     11.22598835      10.47737466       9.83063260       29       0.00036915      -0.00174208       0.00028038 
Cu      6.67212659       5.59166455       8.79317036       29       0.00123039       0.00071087      -0.00210776 
Cu      6.89030373      13.83780345      10.70621799       29      -0.00035126      -0.00153272      -0.00195121 
Cu      5.15705713       7.57995947       9.26190051       29       0.00197495       0.00116624      -0.00227866 
Cu     11.01351604       6.17708975       9.24742493       29      -0.00284802      -0.00082061      -0.00311078 
Cu      7.03133134      11.37098936      10.45600004       29      -0.00272112       0.00153997       0.00058607 
Cu     13.17904379      11.73663416      10.78910570       29       0.00044051      -0.00257338       0.00116113 
Cu      8.63096067       6.91632007       9.71562822       29      -0.00280572       0.00218904       0.00194824 
Cu      7.12999484       8.88499393      10.21749224       29      -0.00275857      -0.00258120       0.00060218 
Cu     13.00377610       7.43239436      10.23458280       29      -0.00065895       0.00065472       0.00286556 
Cu      9.00073554      12.69304826      11.43761136       29      -0.00003838      -0.00251239       0.00007765 
Cu      8.50502406       2.62021779       9.18693069       29      -0.00049245       0.00127026       0.00077709 
Cu      2.98346030       9.81233619      10.84168900       29       0.00133452       0.00255659      -0.00239435 
Cu     10.64461686       8.21243367      10.70753592       29      -0.00191911      -0.00724155      -0.00299794 
Cu      9.11235683      10.17920775      11.17999038       29       0.00118518       0.00440068       0.00101530 
Cu      6.13496074       3.33899507       9.70212343       29       0.00308955      -0.00184052      -0.00117226 
Cu      4.56941627       5.28460818      10.16300362       29      -0.00076244       0.00890486       0.00064158 
