55
Lattice="31.008659458455806 0.0 0.0 0.0 30.46985731363867 0.0 0.0 0.0 27.657966440250313" Properties=species:S:1:pos:R:3:tags:I:1:initial_magmoms:R:1:forces:R:3 energy=nan pbc="F F F"
Cu      15.50432973      15.36539543      10.00000000        0       0.00000000              nan              nan              nan
Cu      15.50432973      15.36539543      12.55265548        0       0.00000000              nan              nan              nan
Cu      15.50432973      15.36539543      15.10531096        0       0.00000000              nan              nan              nan
Cu      15.50432973      15.36539543      17.65796644        0       0.00000000              nan              nan              nan
Cu      17.60679660      16.04852833      11.27632774        0       0.00000000              nan              nan              nan
Cu      17.60679660      16.04852833      13.82898322        0       0.00000000              nan              nan              nan
Cu      17.60679660      16.04852833      16.38163870        0       0.00000000              nan              nan              nan
Cu      15.50432973      17.57605992      11.27632774        0       0.00000000              nan              nan              nan
Cu      15.50432973      17.57605992      13.82898322        0       0.00000000              nan              nan              nan
Cu      15.50432973      17.57605992      16.38163870        0       0.00000000              nan              nan              nan
Cu      13.40186286      16.04852833      11.27632774        0       0.00000000              nan              nan              nan
Cu      13.40186286      16.04852833      13.82898322        0       0.00000000              nan              nan              nan
Cu      13.40186286      16.04852833      16.38163870        0       0.00000000              nan              nan              nan
Cu      14.20493374      13.57693029      11.27632774        0       0.00000000              nan              nan              nan
Cu      14.20493374      13.57693029      13.82898322        0       0.00000000              nan              nan              nan
Cu      14.20493374      13.57693029      16.38163870        0       0.00000000              nan              nan              nan
Cu      16.80372572      13.57693029      11.27632774        0       0.00000000              nan              nan              nan
Cu      16.80372572      13.57693029      13.82898322        0       0.00000000              nan              nan              nan
Cu      16.80372572      13.57693029      16.38163870        0       0.00000000              nan              nan              nan
Cu      19.70926347      16.73166123      12.55265548        0       0.00000000              nan              nan              nan
Cu      19.70926347      16.73166123      15.10531096        0       0.00000000              nan              nan              nan
Cu      17.60679660      18.25919282      12.55265548        0       0.00000000              nan              nan              nan
Cu      17.60679660      18.25919282      15.10531096        0       0.00000000              nan              nan              nan
Cu      15.50432973      19.78672442      12.55265548        0       0.00000000              nan              nan              nan
Cu      15.50432973      19.78672442      15.10531096        0       0.00000000              nan              nan              nan
Cu      13.40186286      18.25919282      12.55265548        0       0.00000000              nan              nan              nan
Cu      13.40186286      18.25919282      15.10531096        0       0.00000000              nan              nan              nan
Cu      11.29939599      16.73166123      12.55265548        0       0.00000000              nan              nan              nan
Cu      11.29939599      16.73166123      15.10531096        0       0.00000000              nan              nan              nan
Cu      12.10246687      14.26006318      10.00000000        0       0.00000000              nan              nan              nan
Cu      12.10246687      14.26006318      12.55265548        0       0.00000000              nan              nan              nan
Cu      12.10246687      14.26006318      15.10531096        0       0.00000000              nan              nan              nan
Cu      12.90553776      11.78846514      12.55265548        0       0.00000000              nan              nan              nan
Cu      12.90553776      11.78846514      15.10531096        0       0.00000000              nan              nan              nan
Cu      15.50432973      11.78846514      12.55265548        0       0.00000000              nan              nan              nan
Cu      15.50432973      11.78846514      15.10531096        0       0.00000000              nan              nan              nan
Cu      18.10312170      11.78846514      12.55265548        0       0.00000000              nan              nan              nan
Cu      18.10312170      11.78846514      15.10531096        0       0.00000000              nan              nan              nan
Cu      18.90619259      14.26006318      10.00000000        0       0.00000000              nan              nan              nan
Cu      18.90619259      14.26006318      12.55265548        0       0.00000000              nan              nan              nan
Cu      18.90619259      14.26006318      15.10531096        0       0.00000000              nan              nan              nan
Cu      19.70926347      18.94232572      13.82898322        0       0.00000000              nan              nan              nan
Cu      17.60679660      20.46985731      13.82898322        0       0.00000000              nan              nan              nan
Cu      13.40186286      20.46985731      13.82898322        0       0.00000000              nan              nan              nan
Cu      11.29939599      18.94232572      13.82898322        0       0.00000000              nan              nan              nan
Cu      10.00000000      14.94319608      11.27632774        0       0.00000000              nan              nan              nan
Cu      10.00000000      14.94319608      13.82898322        0       0.00000000              nan              nan              nan
Cu      10.80307088      12.47159804      11.27632774        0       0.00000000              nan              nan              nan
Cu      10.80307088      12.47159804      13.82898322        0       0.00000000              nan              nan              nan
Cu      14.20493374      10.00000000      13.82898322        0       0.00000000              nan              nan              nan
Cu      16.80372572      10.00000000      13.82898322        0       0.00000000              nan              nan              nan
Cu      20.20558857      12.47159804      11.27632774        0       0.00000000              nan              nan              nan
Cu      20.20558857      12.47159804      13.82898322        0       0.00000000              nan              nan              nan
Cu      21.00865946      14.94319608      11.27632774        0       0.00000000              nan              nan              nan
Cu      21.00865946      14.94319608      13.82898322        0       0.00000000              nan              nan              nan
